 Entering Gaussian System, Link 0=/dragofs/sw/campus/0.2/software/gaussian/16.gaussian/gaussian/g16_legacy/g16
 Input=dimer14b_000_011_opt.com
 Output=dimer14b_000_011_opt.log
 Initial command:
 /dragofs/sw/campus/0.2/software/gaussian/16.gaussian/gaussian/g16_legacy/l1.exe "/tmp/jramos/82108/Gau-2538853.inp" -scrdir="/tmp/jramos/82108/"
 Entering Link 1 = /dragofs/sw/campus/0.2/software/gaussian/16.gaussian/gaussian/g16_legacy/l1.exe PID=   2538854.
  
 Copyright (c) 1988,1990,1992,1993,1995,1998,2003,2009,2016,
            Gaussian, Inc.  All Rights Reserved.
  
 This is part of the Gaussian(R) 16 program.  It is based on
 the Gaussian(R) 09 system (copyright 2009, Gaussian, Inc.),
 the Gaussian(R) 03 system (copyright 2003, Gaussian, Inc.),
 the Gaussian(R) 98 system (copyright 1998, Gaussian, Inc.),
 the Gaussian(R) 94 system (copyright 1995, Gaussian, Inc.),
 the Gaussian 92(TM) system (copyright 1992, Gaussian, Inc.),
 the Gaussian 90(TM) system (copyright 1990, Gaussian, Inc.),
 the Gaussian 88(TM) system (copyright 1988, Gaussian, Inc.),
 the Gaussian 86(TM) system (copyright 1986, Carnegie Mellon
 University), and the Gaussian 82(TM) system (copyright 1983,
 Carnegie Mellon University). Gaussian is a federally registered
 trademark of Gaussian, Inc.
  
 This software contains proprietary and confidential information,
 including trade secrets, belonging to Gaussian, Inc.
  
 This software is provided under written license and may be
 used, copied, transmitted, or stored only in accord with that
 written license.
  
 The following legend is applicable only to US Government
 contracts under FAR:
  
                    RESTRICTED RIGHTS LEGEND
  
 Use, reproduction and disclosure by the US Government is
 subject to restrictions as set forth in subparagraphs (a)
 and (c) of the Commercial Computer Software - Restricted
 Rights clause in FAR 52.227-19.
  
 Gaussian, Inc.
 340 Quinnipiac St., Bldg. 40, Wallingford CT 06492
  
  
 ---------------------------------------------------------------
 Warning -- This program may not be used in any manner that
 competes with the business of Gaussian, Inc. or will provide
 assistance to any competitor of Gaussian, Inc.  The licensee
 of this program is prohibited from giving any competitor of
 Gaussian, Inc. access to this program.  By using this program,
 the user acknowledges that Gaussian, Inc. is engaged in the
 business of creating and licensing software in the field of
 computational chemistry and represents and warrants to the
 licensee that it is not a competitor of Gaussian, Inc. and that
 it will not use this program in any manner prohibited above.
 ---------------------------------------------------------------
  

 Cite this work as:
 Gaussian 16, Revision A.03,
 M. J. Frisch, G. W. Trucks, H. B. Schlegel, G. E. Scuseria, 
 M. A. Robb, J. R. Cheeseman, G. Scalmani, V. Barone, 
 G. A. Petersson, H. Nakatsuji, X. Li, M. Caricato, A. V. Marenich, 
 J. Bloino, B. G. Janesko, R. Gomperts, B. Mennucci, H. P. Hratchian, 
 J. V. Ortiz, A. F. Izmaylov, J. L. Sonnenberg, D. Williams-Young, 
 F. Ding, F. Lipparini, F. Egidi, J. Goings, B. Peng, A. Petrone, 
 T. Henderson, D. Ranasinghe, V. G. Zakrzewski, J. Gao, N. Rega, 
 G. Zheng, W. Liang, M. Hada, M. Ehara, K. Toyota, R. Fukuda, 
 J. Hasegawa, M. Ishida, T. Nakajima, Y. Honda, O. Kitao, H. Nakai, 
 T. Vreven, K. Throssell, J. A. Montgomery, Jr., J. E. Peralta, 
 F. Ogliaro, M. J. Bearpark, J. J. Heyd, E. N. Brothers, K. N. Kudin, 
 V. N. Staroverov, T. A. Keith, R. Kobayashi, J. Normand, 
 K. Raghavachari, A. P. Rendell, J. C. Burant, S. S. Iyengar, 
 J. Tomasi, M. Cossi, J. M. Millam, M. Klene, C. Adamo, R. Cammi, 
 J. W. Ochterski, R. L. Martin, K. Morokuma, O. Farkas, 
 J. B. Foresman, and D. J. Fox, Gaussian, Inc., Wallingford CT, 2016.
 
 ******************************************
 Gaussian 16:  EM64L-G16RevA.03 25-Dec-2016
                16-Mar-2023 
 ******************************************
 %chk=dimer14b_000_011_opt.chk
 %mem=2000MB
 %nproc=8
 Will use up to    8 processors via shared memory.
 ------------------------
 #p opt M062X/6-311g(d,p)
 ------------------------
 1/18=20,19=15,26=3,38=1/1,3;
 2/9=110,12=2,17=6,18=5,40=1/2;
 3/5=4,6=6,7=101,11=2,25=1,30=1,71=1,74=-55/1,2,3;
 4//1;
 5/5=2,38=5/2;
 6/7=2,8=2,9=2,10=2,28=1/1;
 7//1,2,3,16;
 1/18=20,19=15,26=3/3(2);
 2/9=110/2;
 99//99;
 2/9=110/2;
 3/5=4,6=6,7=101,11=2,25=1,30=1,71=1,74=-55/1,2,3;
 4/5=5,16=3,69=1/1;
 5/5=2,38=5/2;
 7//1,2,3,16;
 1/18=20,19=15,26=3/3(-5);
 2/9=110/2;
 6/7=2,8=2,9=2,10=2,19=2,28=1/1;
 99/9=1/99;
 Leave Link    1 at Thu Mar 16 19:25:02 2023, MaxMem=   262144000 cpu:               0.3 elap:               0.1
 (Enter /dragofs/sw/campus/0.2/software/gaussian/16.gaussian/gaussian/g16_legacy/l101.exe)
 ---------------------------------------------------------
 Optimization 03-DIHEDRAL_PHI_PSI_14b/dimer14b_000_011.log
 ---------------------------------------------------------
 Symbolic Z-matrix:
 Charge =  0 Multiplicity = 1
 C                    -3.96626  -0.49568   0.5049 
 H                    -3.82765  -0.32458   1.57965 
 O                    -5.28394  -0.84572   0.32295 
 H                    -5.38077  -1.2284   -0.55456 
 C                    -2.43329   1.25562   0.07593 
 H                    -2.34335   1.43483   1.15777 
 O                    -3.70305   0.70507  -0.21046 
 C                    -2.9852   -1.53028  -0.01845 
 H                    -3.14981  -1.60514  -1.1062 
 O                    -3.21865  -2.76121   0.61365 
 H                    -2.51154  -3.34808   0.32518 
 C                    -1.53704  -1.09554   0.19387 
 H                    -1.32771  -1.09      1.27356 
 O                    -0.78025  -2.09361  -0.46115 
 H                     0.14467  -1.80857  -0.44581 
 C                    -1.29493   0.31789  -0.34124 
 H                    -1.21385   0.27366  -1.4374 
 O                    -0.1365    0.96035   0.19983 
 C                    -2.39327   2.58703  -0.65217 
 H                    -1.44228   3.08531  -0.46432 
 H                    -2.47852   2.39115  -1.73042 
 O                    -3.41849   3.43295  -0.19718 
 H                    -4.23151   2.91866  -0.24644 
 C                     1.12155   0.62983  -0.26666 
 H                     1.16458   0.72929  -1.36542 
 C                     2.74505  -1.12458  -0.34188 
 H                     2.81414  -1.04857  -1.43572 
 O                     1.44257  -0.70713   0.08277 
 C                     2.10493   1.58379   0.39389 
 H                     2.00674   1.46212   1.48033 
 O                     1.87968   2.91778  -0.00049 
 H                     1.02963   3.19267   0.35559 
 C                     3.51298   1.22272  -0.03205 
 H                     3.597     1.35869  -1.12078 
 O                     4.48045   2.00149   0.6356 
 H                     4.25983   2.926     0.48204 
 C                     3.80211  -0.23013   0.29529 
 H                     3.76082  -0.349     1.38844 
 O                     5.05621  -0.62195  -0.20858 
 H                     5.68996   0.04644   0.07332 
 C                     2.8985   -2.57691   0.06857 
 H                     3.89293  -2.90969  -0.23011 
 H                     2.82264  -2.64284   1.16017 
 O                     1.9469   -3.39734  -0.57487 
 H                     1.15387  -3.45171  -0.03546 
 
 ITRead=  0  0  0  0  0  0  0  0  0  0  0  0  0  0  0  0  0  0  0  0
 ITRead=  0  0  0  0  0  0  0  0  0  0  0  0  0  0  0  0  0  0  0  0
 ITRead=  0  0  0  0  0
 MicOpt= -1 -1 -1 -1 -1 -1 -1 -1 -1 -1 -1 -1 -1 -1 -1 -1 -1 -1 -1 -1
 MicOpt= -1 -1 -1 -1 -1 -1 -1 -1 -1 -1 -1 -1 -1 -1 -1 -1 -1 -1 -1 -1
 MicOpt= -1 -1 -1 -1 -1
 NAtoms=     45 NQM=       45 NQMF=       0 NMMI=      0 NMMIF=      0
                NMic=       0 NMicF=      0.
                    Isotopes and Nuclear Properties:
 (Nuclear quadrupole moments (NQMom) in fm**2, nuclear magnetic moments (NMagM)
  in nuclear magnetons)

  Atom         1           2           3           4           5           6           7           8           9          10
 IAtWgt=          12           1          16           1          12           1          16          12           1          16
 AtmWgt=  12.0000000   1.0078250  15.9949146   1.0078250  12.0000000   1.0078250  15.9949146  12.0000000   1.0078250  15.9949146
 NucSpn=           0           1           0           1           0           1           0           0           1           0
 AtZEff=  -0.0000000  -0.0000000  -0.0000000  -0.0000000  -0.0000000  -0.0000000  -0.0000000  -0.0000000  -0.0000000  -0.0000000
 NQMom=    0.0000000   0.0000000   0.0000000   0.0000000   0.0000000   0.0000000   0.0000000   0.0000000   0.0000000   0.0000000
 NMagM=    0.0000000   2.7928460   0.0000000   2.7928460   0.0000000   2.7928460   0.0000000   0.0000000   2.7928460   0.0000000
 AtZNuc=   6.0000000   1.0000000   8.0000000   1.0000000   6.0000000   1.0000000   8.0000000   6.0000000   1.0000000   8.0000000

  Atom        11          12          13          14          15          16          17          18          19          20
 IAtWgt=           1          12           1          16           1          12           1          16          12           1
 AtmWgt=   1.0078250  12.0000000   1.0078250  15.9949146   1.0078250  12.0000000   1.0078250  15.9949146  12.0000000   1.0078250
 NucSpn=           1           0           1           0           1           0           1           0           0           1
 AtZEff=  -0.0000000  -0.0000000  -0.0000000  -0.0000000  -0.0000000  -0.0000000  -0.0000000  -0.0000000  -0.0000000  -0.0000000
 NQMom=    0.0000000   0.0000000   0.0000000   0.0000000   0.0000000   0.0000000   0.0000000   0.0000000   0.0000000   0.0000000
 NMagM=    2.7928460   0.0000000   2.7928460   0.0000000   2.7928460   0.0000000   2.7928460   0.0000000   0.0000000   2.7928460
 AtZNuc=   1.0000000   6.0000000   1.0000000   8.0000000   1.0000000   6.0000000   1.0000000   8.0000000   6.0000000   1.0000000

  Atom        21          22          23          24          25          26          27          28          29          30
 IAtWgt=           1          16           1          12           1          12           1          16          12           1
 AtmWgt=   1.0078250  15.9949146   1.0078250  12.0000000   1.0078250  12.0000000   1.0078250  15.9949146  12.0000000   1.0078250
 NucSpn=           1           0           1           0           1           0           1           0           0           1
 AtZEff=  -0.0000000  -0.0000000  -0.0000000  -0.0000000  -0.0000000  -0.0000000  -0.0000000  -0.0000000  -0.0000000  -0.0000000
 NQMom=    0.0000000   0.0000000   0.0000000   0.0000000   0.0000000   0.0000000   0.0000000   0.0000000   0.0000000   0.0000000
 NMagM=    2.7928460   0.0000000   2.7928460   0.0000000   2.7928460   0.0000000   2.7928460   0.0000000   0.0000000   2.7928460
 AtZNuc=   1.0000000   8.0000000   1.0000000   6.0000000   1.0000000   6.0000000   1.0000000   8.0000000   6.0000000   1.0000000

  Atom        31          32          33          34          35          36          37          38          39          40
 IAtWgt=          16           1          12           1          16           1          12           1          16           1
 AtmWgt=  15.9949146   1.0078250  12.0000000   1.0078250  15.9949146   1.0078250  12.0000000   1.0078250  15.9949146   1.0078250
 NucSpn=           0           1           0           1           0           1           0           1           0           1
 AtZEff=  -0.0000000  -0.0000000  -0.0000000  -0.0000000  -0.0000000  -0.0000000  -0.0000000  -0.0000000  -0.0000000  -0.0000000
 NQMom=    0.0000000   0.0000000   0.0000000   0.0000000   0.0000000   0.0000000   0.0000000   0.0000000   0.0000000   0.0000000
 NMagM=    0.0000000   2.7928460   0.0000000   2.7928460   0.0000000   2.7928460   0.0000000   2.7928460   0.0000000   2.7928460
 AtZNuc=   8.0000000   1.0000000   6.0000000   1.0000000   8.0000000   1.0000000   6.0000000   1.0000000   8.0000000   1.0000000

  Atom        41          42          43          44          45
 IAtWgt=          12           1           1          16           1
 AtmWgt=  12.0000000   1.0078250   1.0078250  15.9949146   1.0078250
 NucSpn=           0           1           1           0           1
 AtZEff=  -0.0000000  -0.0000000  -0.0000000  -0.0000000  -0.0000000
 NQMom=    0.0000000   0.0000000   0.0000000   0.0000000   0.0000000
 NMagM=    0.0000000   2.7928460   2.7928460   0.0000000   2.7928460
 AtZNuc=   6.0000000   1.0000000   1.0000000   8.0000000   1.0000000
 Leave Link  101 at Thu Mar 16 19:25:03 2023, MaxMem=   262144000 cpu:               1.6 elap:               0.2
 (Enter /dragofs/sw/campus/0.2/software/gaussian/16.gaussian/gaussian/g16_legacy/l103.exe)

 GradGradGradGradGradGradGradGradGradGradGradGradGradGradGradGradGradGrad
 Berny optimization.
 Initialization pass.
                           ----------------------------
                           !    Initial Parameters    !
                           ! (Angstroms and Degrees)  !
 --------------------------                            --------------------------
 ! Name  Definition              Value          Derivative Info.                !
 --------------------------------------------------------------------------------
 ! R1    R(1,2)                  1.0971         estimate D2E/DX2                !
 ! R2    R(1,3)                  1.3755         estimate D2E/DX2                !
 ! R3    R(1,7)                  1.4223         estimate D2E/DX2                !
 ! R4    R(1,8)                  1.5188         estimate D2E/DX2                !
 ! R5    R(3,4)                  0.9622         estimate D2E/DX2                !
 ! R6    R(5,6)                  1.1003         estimate D2E/DX2                !
 ! R7    R(5,7)                  1.4133         estimate D2E/DX2                !
 ! R8    R(5,16)                 1.5327         estimate D2E/DX2                !
 ! R9    R(5,19)                 1.518          estimate D2E/DX2                !
 ! R10   R(8,9)                  1.1027         estimate D2E/DX2                !
 ! R11   R(8,10)                 1.4033         estimate D2E/DX2                !
 ! R12   R(8,12)                 1.5268         estimate D2E/DX2                !
 ! R13   R(10,11)                0.9631         estimate D2E/DX2                !
 ! R14   R(12,13)                1.0998         estimate D2E/DX2                !
 ! R15   R(12,14)                1.4135         estimate D2E/DX2                !
 ! R16   R(12,16)                1.5306         estimate D2E/DX2                !
 ! R17   R(14,15)                0.968          estimate D2E/DX2                !
 ! R18   R(16,17)                1.1            estimate D2E/DX2                !
 ! R19   R(16,18)                1.4309         estimate D2E/DX2                !
 ! R20   R(18,24)                1.3819         estimate D2E/DX2                !
 ! R21   R(19,20)                1.0899         estimate D2E/DX2                !
 ! R22   R(19,21)                1.0992         estimate D2E/DX2                !
 ! R23   R(19,22)                1.4049         estimate D2E/DX2                !
 ! R24   R(22,23)                0.9633         estimate D2E/DX2                !
 ! R25   R(24,25)                1.1041         estimate D2E/DX2                !
 ! R26   R(24,28)                1.4187         estimate D2E/DX2                !
 ! R27   R(24,29)                1.521          estimate D2E/DX2                !
 ! R28   R(26,27)                1.0987         estimate D2E/DX2                !
 ! R29   R(26,28)                1.4321         estimate D2E/DX2                !
 ! R30   R(26,37)                1.5243         estimate D2E/DX2                !
 ! R31   R(26,41)                1.517          estimate D2E/DX2                !
 ! R32   R(29,30)                1.0976         estimate D2E/DX2                !
 ! R33   R(29,31)                1.4092         estimate D2E/DX2                !
 ! R34   R(29,33)                1.5147         estimate D2E/DX2                !
 ! R35   R(31,32)                0.9617         estimate D2E/DX2                !
 ! R36   R(33,34)                1.1004         estimate D2E/DX2                !
 ! R37   R(33,35)                1.41           estimate D2E/DX2                !
 ! R38   R(33,37)                1.5171         estimate D2E/DX2                !
 ! R39   R(35,36)                0.9628         estimate D2E/DX2                !
 ! R40   R(37,38)                1.1004         estimate D2E/DX2                !
 ! R41   R(37,39)                1.4072         estimate D2E/DX2                !
 ! R42   R(39,40)                0.9632         estimate D2E/DX2                !
 ! R43   R(41,42)                1.0903         estimate D2E/DX2                !
 ! R44   R(41,43)                1.0962         estimate D2E/DX2                !
 ! R45   R(41,44)                1.4116         estimate D2E/DX2                !
 ! R46   R(44,45)                0.9606         estimate D2E/DX2                !
 ! A1    A(2,1,3)              106.8769         estimate D2E/DX2                !
 ! A2    A(2,1,7)              109.7364         estimate D2E/DX2                !
 ! A3    A(2,1,8)              111.2355         estimate D2E/DX2                !
 ! A4    A(3,1,7)              109.0022         estimate D2E/DX2                !
 ! A5    A(3,1,8)              113.5694         estimate D2E/DX2                !
 ! A6    A(7,1,8)              106.3941         estimate D2E/DX2                !
 ! A7    A(1,3,4)              108.5576         estimate D2E/DX2                !
 ! A8    A(6,5,7)              109.6416         estimate D2E/DX2                !
 ! A9    A(6,5,16)             107.8521         estimate D2E/DX2                !
 ! A10   A(6,5,19)             109.062          estimate D2E/DX2                !
 ! A11   A(7,5,16)             111.9498         estimate D2E/DX2                !
 ! A12   A(7,5,19)             105.5544         estimate D2E/DX2                !
 ! A13   A(16,5,19)            112.7352         estimate D2E/DX2                !
 ! A14   A(1,7,5)              113.1551         estimate D2E/DX2                !
 ! A15   A(1,8,9)              106.842          estimate D2E/DX2                !
 ! A16   A(1,8,10)             109.5636         estimate D2E/DX2                !
 ! A17   A(1,8,12)             111.7636         estimate D2E/DX2                !
 ! A18   A(9,8,10)             111.0977         estimate D2E/DX2                !
 ! A19   A(9,8,12)             107.3434         estimate D2E/DX2                !
 ! A20   A(10,8,12)            110.1761         estimate D2E/DX2                !
 ! A21   A(8,10,11)            106.1076         estimate D2E/DX2                !
 ! A22   A(8,12,13)            108.5708         estimate D2E/DX2                !
 ! A23   A(8,12,14)            104.0236         estimate D2E/DX2                !
 ! A24   A(8,12,16)            111.3674         estimate D2E/DX2                !
 ! A25   A(13,12,14)           110.8908         estimate D2E/DX2                !
 ! A26   A(13,12,16)           107.9661         estimate D2E/DX2                !
 ! A27   A(14,12,16)           113.9129         estimate D2E/DX2                !
 ! A28   A(12,14,15)           107.2367         estimate D2E/DX2                !
 ! A29   A(5,16,12)            110.6302         estimate D2E/DX2                !
 ! A30   A(5,16,17)            110.5212         estimate D2E/DX2                !
 ! A31   A(5,16,18)            102.9247         estimate D2E/DX2                !
 ! A32   A(12,16,17)           108.8383         estimate D2E/DX2                !
 ! A33   A(12,16,18)           114.2349         estimate D2E/DX2                !
 ! A34   A(17,16,18)           109.5838         estimate D2E/DX2                !
 ! A35   A(16,18,24)           120.1325         estimate D2E/DX2                !
 ! A36   A(5,19,20)            109.9565         estimate D2E/DX2                !
 ! A37   A(5,19,21)            108.1892         estimate D2E/DX2                !
 ! A38   A(5,19,22)            110.7036         estimate D2E/DX2                !
 ! A39   A(20,19,21)           108.5541         estimate D2E/DX2                !
 ! A40   A(20,19,22)           107.7966         estimate D2E/DX2                !
 ! A41   A(21,19,22)           111.6164         estimate D2E/DX2                !
 ! A42   A(19,22,23)           106.1338         estimate D2E/DX2                !
 ! A43   A(18,24,25)           110.4805         estimate D2E/DX2                !
 ! A44   A(18,24,28)           110.3814         estimate D2E/DX2                !
 ! A45   A(18,24,29)           106.9769         estimate D2E/DX2                !
 ! A46   A(25,24,28)           108.7354         estimate D2E/DX2                !
 ! A47   A(25,24,29)           110.5173         estimate D2E/DX2                !
 ! A48   A(28,24,29)           109.7431         estimate D2E/DX2                !
 ! A49   A(27,26,28)           109.4053         estimate D2E/DX2                !
 ! A50   A(27,26,37)           109.3885         estimate D2E/DX2                !
 ! A51   A(27,26,41)           109.223          estimate D2E/DX2                !
 ! A52   A(28,26,37)           109.6158         estimate D2E/DX2                !
 ! A53   A(28,26,41)           106.9076         estimate D2E/DX2                !
 ! A54   A(37,26,41)           112.2432         estimate D2E/DX2                !
 ! A55   A(24,28,26)           114.0451         estimate D2E/DX2                !
 ! A56   A(24,29,30)           107.6083         estimate D2E/DX2                !
 ! A57   A(24,29,31)           111.6442         estimate D2E/DX2                !
 ! A58   A(24,29,33)           109.2313         estimate D2E/DX2                !
 ! A59   A(30,29,31)           111.5703         estimate D2E/DX2                !
 ! A60   A(30,29,33)           109.5761         estimate D2E/DX2                !
 ! A61   A(31,29,33)           107.1899         estimate D2E/DX2                !
 ! A62   A(29,31,32)           107.9531         estimate D2E/DX2                !
 ! A63   A(29,33,34)           108.647          estimate D2E/DX2                !
 ! A64   A(29,33,35)           111.9013         estimate D2E/DX2                !
 ! A65   A(29,33,37)           110.1676         estimate D2E/DX2                !
 ! A66   A(34,33,35)           110.355          estimate D2E/DX2                !
 ! A67   A(34,33,37)           108.4973         estimate D2E/DX2                !
 ! A68   A(35,33,37)           107.2171         estimate D2E/DX2                !
 ! A69   A(33,35,36)           107.3138         estimate D2E/DX2                !
 ! A70   A(26,37,33)           109.8524         estimate D2E/DX2                !
 ! A71   A(26,37,38)           109.0175         estimate D2E/DX2                !
 ! A72   A(26,37,39)           107.7566         estimate D2E/DX2                !
 ! A73   A(33,37,38)           108.0989         estimate D2E/DX2                !
 ! A74   A(33,37,39)           111.0541         estimate D2E/DX2                !
 ! A75   A(38,37,39)           111.0436         estimate D2E/DX2                !
 ! A76   A(37,39,40)           106.7594         estimate D2E/DX2                !
 ! A77   A(26,41,42)           108.0795         estimate D2E/DX2                !
 ! A78   A(26,41,43)           108.6627         estimate D2E/DX2                !
 ! A79   A(26,41,44)           111.4018         estimate D2E/DX2                !
 ! A80   A(42,41,43)           108.5138         estimate D2E/DX2                !
 ! A81   A(42,41,44)           108.215          estimate D2E/DX2                !
 ! A82   A(43,41,44)           111.8572         estimate D2E/DX2                !
 ! A83   A(41,44,45)           109.4783         estimate D2E/DX2                !
 ! D1    D(2,1,3,4)           -164.8785         estimate D2E/DX2                !
 ! D2    D(7,1,3,4)             76.5858         estimate D2E/DX2                !
 ! D3    D(8,1,3,4)            -41.8329         estimate D2E/DX2                !
 ! D4    D(2,1,7,5)             54.2551         estimate D2E/DX2                !
 ! D5    D(3,1,7,5)            170.9834         estimate D2E/DX2                !
 ! D6    D(8,1,7,5)            -66.1869         estimate D2E/DX2                !
 ! D7    D(2,1,8,9)           -176.9954         estimate D2E/DX2                !
 ! D8    D(2,1,8,10)            62.5599         estimate D2E/DX2                !
 ! D9    D(2,1,8,12)           -59.8522         estimate D2E/DX2                !
 ! D10   D(3,1,8,9)             62.385          estimate D2E/DX2                !
 ! D11   D(3,1,8,10)           -58.0598         estimate D2E/DX2                !
 ! D12   D(3,1,8,12)           179.5282         estimate D2E/DX2                !
 ! D13   D(7,1,8,9)            -57.5252         estimate D2E/DX2                !
 ! D14   D(7,1,8,10)          -177.97           estimate D2E/DX2                !
 ! D15   D(7,1,8,12)            59.618          estimate D2E/DX2                !
 ! D16   D(6,5,7,1)            -56.8055         estimate D2E/DX2                !
 ! D17   D(16,5,7,1)            62.8494         estimate D2E/DX2                !
 ! D18   D(19,5,7,1)          -174.147          estimate D2E/DX2                !
 ! D19   D(6,5,16,12)           71.1087         estimate D2E/DX2                !
 ! D20   D(6,5,16,17)         -168.2728         estimate D2E/DX2                !
 ! D21   D(6,5,16,18)          -51.3302         estimate D2E/DX2                !
 ! D22   D(7,5,16,12)          -49.5907         estimate D2E/DX2                !
 ! D23   D(7,5,16,17)           71.0278         estimate D2E/DX2                !
 ! D24   D(7,5,16,18)         -172.0296         estimate D2E/DX2                !
 ! D25   D(19,5,16,12)        -168.4289         estimate D2E/DX2                !
 ! D26   D(19,5,16,17)         -47.8104         estimate D2E/DX2                !
 ! D27   D(19,5,16,18)          69.1321         estimate D2E/DX2                !
 ! D28   D(6,5,19,20)           61.2943         estimate D2E/DX2                !
 ! D29   D(6,5,19,21)          179.6954         estimate D2E/DX2                !
 ! D30   D(6,5,19,22)          -57.7081         estimate D2E/DX2                !
 ! D31   D(7,5,19,20)          179.0262         estimate D2E/DX2                !
 ! D32   D(7,5,19,21)          -62.5727         estimate D2E/DX2                !
 ! D33   D(7,5,19,22)           60.0238         estimate D2E/DX2                !
 ! D34   D(16,5,19,20)         -58.4719         estimate D2E/DX2                !
 ! D35   D(16,5,19,21)          59.9292         estimate D2E/DX2                !
 ! D36   D(16,5,19,22)        -177.4743         estimate D2E/DX2                !
 ! D37   D(1,8,10,11)         -173.5833         estimate D2E/DX2                !
 ! D38   D(9,8,10,11)           68.5975         estimate D2E/DX2                !
 ! D39   D(12,8,10,11)         -50.23           estimate D2E/DX2                !
 ! D40   D(1,8,12,13)           67.5036         estimate D2E/DX2                !
 ! D41   D(1,8,12,14)         -174.3553         estimate D2E/DX2                !
 ! D42   D(1,8,12,16)          -51.2379         estimate D2E/DX2                !
 ! D43   D(9,8,12,13)         -175.6559         estimate D2E/DX2                !
 ! D44   D(9,8,12,14)          -57.5149         estimate D2E/DX2                !
 ! D45   D(9,8,12,16)           65.6025         estimate D2E/DX2                !
 ! D46   D(10,8,12,13)         -54.5574         estimate D2E/DX2                !
 ! D47   D(10,8,12,14)          63.5836         estimate D2E/DX2                !
 ! D48   D(10,8,12,16)        -173.299          estimate D2E/DX2                !
 ! D49   D(8,12,14,15)         173.4272         estimate D2E/DX2                !
 ! D50   D(13,12,14,15)        -70.0415         estimate D2E/DX2                !
 ! D51   D(16,12,14,15)         51.9909         estimate D2E/DX2                !
 ! D52   D(8,12,16,5)           44.582          estimate D2E/DX2                !
 ! D53   D(8,12,16,17)         -77.0337         estimate D2E/DX2                !
 ! D54   D(8,12,16,18)         160.1489         estimate D2E/DX2                !
 ! D55   D(13,12,16,5)         -74.5208         estimate D2E/DX2                !
 ! D56   D(13,12,16,17)        163.8635         estimate D2E/DX2                !
 ! D57   D(13,12,16,18)         41.0461         estimate D2E/DX2                !
 ! D58   D(14,12,16,5)         161.8478         estimate D2E/DX2                !
 ! D59   D(14,12,16,17)         40.2321         estimate D2E/DX2                !
 ! D60   D(14,12,16,18)        -82.5853         estimate D2E/DX2                !
 ! D61   D(5,16,18,24)        -162.0874         estimate D2E/DX2                !
 ! D62   D(12,16,18,24)         77.9304         estimate D2E/DX2                !
 ! D63   D(17,16,18,24)        -44.4811         estimate D2E/DX2                !
 ! D64   D(16,18,24,25)         53.6736         estimate D2E/DX2                !
 ! D65   D(16,18,24,28)        -66.6269         estimate D2E/DX2                !
 ! D66   D(16,18,24,29)        174.0189         estimate D2E/DX2                !
 ! D67   D(5,19,22,23)         -51.1041         estimate D2E/DX2                !
 ! D68   D(20,19,22,23)       -171.4038         estimate D2E/DX2                !
 ! D69   D(21,19,22,23)         69.4741         estimate D2E/DX2                !
 ! D70   D(18,24,28,26)       -178.8664         estimate D2E/DX2                !
 ! D71   D(25,24,28,26)         59.7912         estimate D2E/DX2                !
 ! D72   D(29,24,28,26)        -61.2026         estimate D2E/DX2                !
 ! D73   D(18,24,29,30)         58.4205         estimate D2E/DX2                !
 ! D74   D(18,24,29,31)        -64.3254         estimate D2E/DX2                !
 ! D75   D(18,24,29,33)        177.3035         estimate D2E/DX2                !
 ! D76   D(25,24,29,30)        178.7424         estimate D2E/DX2                !
 ! D77   D(25,24,29,31)         55.9964         estimate D2E/DX2                !
 ! D78   D(25,24,29,33)        -62.3747         estimate D2E/DX2                !
 ! D79   D(28,24,29,30)        -61.3447         estimate D2E/DX2                !
 ! D80   D(28,24,29,31)        175.9094         estimate D2E/DX2                !
 ! D81   D(28,24,29,33)         57.5383         estimate D2E/DX2                !
 ! D82   D(27,26,28,24)        -59.931          estimate D2E/DX2                !
 ! D83   D(37,26,28,24)         60.0158         estimate D2E/DX2                !
 ! D84   D(41,26,28,24)       -178.0902         estimate D2E/DX2                !
 ! D85   D(27,26,37,33)         64.5098         estimate D2E/DX2                !
 ! D86   D(27,26,37,38)       -177.209          estimate D2E/DX2                !
 ! D87   D(27,26,37,39)        -56.5997         estimate D2E/DX2                !
 ! D88   D(28,26,37,33)        -55.4472         estimate D2E/DX2                !
 ! D89   D(28,26,37,38)         62.834          estimate D2E/DX2                !
 ! D90   D(28,26,37,39)       -176.5567         estimate D2E/DX2                !
 ! D91   D(41,26,37,33)       -174.0887         estimate D2E/DX2                !
 ! D92   D(41,26,37,38)        -55.8074         estimate D2E/DX2                !
 ! D93   D(41,26,37,39)         64.8019         estimate D2E/DX2                !
 ! D94   D(27,26,41,42)         62.739          estimate D2E/DX2                !
 ! D95   D(27,26,41,43)       -179.6914         estimate D2E/DX2                !
 ! D96   D(27,26,41,44)        -56.0195         estimate D2E/DX2                !
 ! D97   D(28,26,41,42)       -178.9827         estimate D2E/DX2                !
 ! D98   D(28,26,41,43)        -61.4132         estimate D2E/DX2                !
 ! D99   D(28,26,41,44)         62.2588         estimate D2E/DX2                !
 ! D100  D(37,26,41,42)        -58.7573         estimate D2E/DX2                !
 ! D101  D(37,26,41,43)         58.8123         estimate D2E/DX2                !
 ! D102  D(37,26,41,44)       -177.5158         estimate D2E/DX2                !
 ! D103  D(24,29,31,32)         67.0295         estimate D2E/DX2                !
 ! D104  D(30,29,31,32)        -53.4239         estimate D2E/DX2                !
 ! D105  D(33,29,31,32)       -173.3866         estimate D2E/DX2                !
 ! D106  D(24,29,33,34)         62.8575         estimate D2E/DX2                !
 ! D107  D(24,29,33,35)       -175.0474         estimate D2E/DX2                !
 ! D108  D(24,29,33,37)        -55.8702         estimate D2E/DX2                !
 ! D109  D(30,29,33,34)       -179.4906         estimate D2E/DX2                !
 ! D110  D(30,29,33,35)        -57.3956         estimate D2E/DX2                !
 ! D111  D(30,29,33,37)         61.7816         estimate D2E/DX2                !
 ! D112  D(31,29,33,34)        -58.262          estimate D2E/DX2                !
 ! D113  D(31,29,33,35)         63.833          estimate D2E/DX2                !
 ! D114  D(31,29,33,37)       -176.9897         estimate D2E/DX2                !
 ! D115  D(29,33,35,36)        -55.0002         estimate D2E/DX2                !
 ! D116  D(34,33,35,36)         66.1117         estimate D2E/DX2                !
 ! D117  D(37,33,35,36)       -175.9039         estimate D2E/DX2                !
 ! D118  D(29,33,37,26)         55.1662         estimate D2E/DX2                !
 ! D119  D(29,33,37,38)        -63.6816         estimate D2E/DX2                !
 ! D120  D(29,33,37,39)        174.272          estimate D2E/DX2                !
 ! D121  D(34,33,37,26)        -63.6532         estimate D2E/DX2                !
 ! D122  D(34,33,37,38)        177.4991         estimate D2E/DX2                !
 ! D123  D(34,33,37,39)         55.4527         estimate D2E/DX2                !
 ! D124  D(35,33,37,26)        177.1601         estimate D2E/DX2                !
 ! D125  D(35,33,37,38)         58.3123         estimate D2E/DX2                !
 ! D126  D(35,33,37,39)        -63.7341         estimate D2E/DX2                !
 ! D127  D(26,37,39,40)        169.9212         estimate D2E/DX2                !
 ! D128  D(33,37,39,40)         49.5656         estimate D2E/DX2                !
 ! D129  D(38,37,39,40)        -70.7506         estimate D2E/DX2                !
 ! D130  D(26,41,44,45)        -90.0603         estimate D2E/DX2                !
 ! D131  D(42,41,44,45)        151.2622         estimate D2E/DX2                !
 ! D132  D(43,41,44,45)         31.7785         estimate D2E/DX2                !
 --------------------------------------------------------------------------------
 Trust Radius=3.00D-01 FncErr=1.00D-07 GrdErr=1.00D-06 EigMax=2.50D+02 EigMin=1.00D-04
 Number of steps in this run=    270 maximum allowed number of steps=    270.
 GradGradGradGradGradGradGradGradGradGradGradGradGradGradGradGradGradGrad

 Leave Link  103 at Thu Mar 16 19:25:03 2023, MaxMem=   262144000 cpu:               0.2 elap:               0.0
 (Enter /dragofs/sw/campus/0.2/software/gaussian/16.gaussian/gaussian/g16_legacy/l202.exe)
                          Input orientation:                          
 ---------------------------------------------------------------------
 Center     Atomic      Atomic             Coordinates (Angstroms)
 Number     Number       Type             X           Y           Z
 ---------------------------------------------------------------------
      1          6           0       -3.966257   -0.495679    0.504904
      2          1           0       -3.827654   -0.324580    1.579647
      3          8           0       -5.283942   -0.845724    0.322946
      4          1           0       -5.380768   -1.228397   -0.554555
      5          6           0       -2.433288    1.255615    0.075929
      6          1           0       -2.343352    1.434829    1.157770
      7          8           0       -3.703049    0.705067   -0.210462
      8          6           0       -2.985198   -1.530282   -0.018451
      9          1           0       -3.149809   -1.605138   -1.106200
     10          8           0       -3.218649   -2.761213    0.613648
     11          1           0       -2.511544   -3.348084    0.325177
     12          6           0       -1.537039   -1.095542    0.193873
     13          1           0       -1.327709   -1.090003    1.273562
     14          8           0       -0.780253   -2.093609   -0.461153
     15          1           0        0.144670   -1.808567   -0.445808
     16          6           0       -1.294928    0.317889   -0.341238
     17          1           0       -1.213852    0.273655   -1.437403
     18          8           0       -0.136499    0.960346    0.199833
     19          6           0       -2.393268    2.587028   -0.652171
     20          1           0       -1.442277    3.085310   -0.464323
     21          1           0       -2.478521    2.391151   -1.730424
     22          8           0       -3.418494    3.432951   -0.197176
     23          1           0       -4.231510    2.918658   -0.246439
     24          6           0        1.121547    0.629827   -0.266658
     25          1           0        1.164580    0.729292   -1.365423
     26          6           0        2.745045   -1.124576   -0.341877
     27          1           0        2.814143   -1.048570   -1.435722
     28          8           0        1.442568   -0.707133    0.082773
     29          6           0        2.104927    1.583787    0.393891
     30          1           0        2.006743    1.462123    1.480332
     31          8           0        1.879676    2.917781   -0.000494
     32          1           0        1.029633    3.192674    0.355586
     33          6           0        3.512983    1.222720   -0.032045
     34          1           0        3.597003    1.358688   -1.120775
     35          8           0        4.480449    2.001492    0.635595
     36          1           0        4.259828    2.926004    0.482044
     37          6           0        3.802113   -0.230127    0.295291
     38          1           0        3.760824   -0.349000    1.388440
     39          8           0        5.056210   -0.621953   -0.208577
     40          1           0        5.689961    0.046436    0.073319
     41          6           0        2.898501   -2.576913    0.068566
     42          1           0        3.892932   -2.909685   -0.230107
     43          1           0        2.822642   -2.642837    1.160174
     44          8           0        1.946898   -3.397344   -0.574872
     45          1           0        1.153866   -3.451713   -0.035456
 ---------------------------------------------------------------------
                    Distance matrix (angstroms):
                    1          2          3          4          5
     1  C    0.000000
     2  H    1.097068   0.000000
     3  O    1.375476   1.992903   0.000000
     4  H    1.913157   2.789958   0.962196   0.000000
     5  C    2.366653   2.588907   3.550052   3.905824   0.000000
     6  H    2.605171   2.340225   3.813781   4.387565   1.100266
     7  O    1.422258   2.068862   2.277872   2.582910   1.413300
     8  C    1.518809   2.171950   2.422684   2.473317   2.841608
     9  H    2.119703   3.051733   2.678375   2.328825   3.177222
    10  O    2.388177   2.690952   2.831791   2.896374   4.128055
    11  H    3.206978   3.528090   3.734702   3.674159   4.611105
    12  C    2.521443   2.785977   3.757439   3.918169   2.518951
    13  H    2.811760   2.632354   4.076165   4.448421   2.856318
    14  O    3.692867   4.071975   4.738696   4.682099   3.773365
    15  H    4.418965   4.699366   5.566676   5.556878   4.038228
    16  C    2.917850   3.243034   4.208012   4.373853   1.532717
    17  H    3.455454   4.036389   4.573562   4.516500   2.177486
    18  O    4.108543   4.144822   5.456484   5.732543   2.319003
    19  C    3.649137   3.939027   4.592454   4.846870   1.518022
    20  H    4.487021   4.636290   5.552586   5.841911   2.149828
    21  H    3.942567   4.489090   4.750166   4.786108   2.134104
    22  O    4.028287   4.176548   4.696539   5.070148   2.405412
    23  H    3.506077   3.743833   3.949985   4.314371   2.470473
    24  C    5.267620   5.367898   6.599634   6.768750   3.625718
    25  H    5.596800   5.891221   6.849431   6.879799   3.911415
    26  C    6.793683   6.894390   8.061289   8.129259   5.714456
    27  H    7.074287   7.330080   8.289333   8.244111   5.927047
    28  O    5.429392   5.492014   6.732223   6.872832   4.344501
    29  C    6.418394   6.343769   7.778364   8.052550   4.561161
    30  H    6.360910   6.102652   7.734325   8.121267   4.661423
    31  O    6.788377   6.751545   8.098519   8.379250   4.622802
    32  H    6.211695   6.120673   7.494728   7.840119   3.977716
    33  C    7.692869   7.673111   9.043803   9.240119   5.947342
    34  H    7.955150   8.077822   9.263636   9.360234   6.148751
    35  O    8.809074   8.679079  10.175840  10.444723   6.976340
    36  H    8.909372   8.785123  10.263274  10.548681   6.910350
    37  C    7.775733   7.737689   9.106927   9.275995   6.413718
    38  H    7.778813   7.590926   9.120844   9.387080   6.531807
    39  O    9.051514   9.066930  10.356222  10.460305   7.726499
    40  H    9.681049   9.643219  11.012938  11.161562   8.212752
    41  C    7.186573   7.252416   8.367443   8.411484   6.566300
    42  H    8.254364   8.340589   9.422357   9.430456   7.580530
    43  H    7.150442   7.055261   8.345494   8.499228   6.633123
    44  O    6.674652   6.886892   7.720226   7.641952   6.423364
    45  H    5.936816   6.099431   6.954495   6.921997   5.919376
                    6          7          8          9         10
     6  H    0.000000
     7  O    2.062374   0.000000
     8  C    3.253820   2.355624   0.000000
     9  H    3.875220   2.538793   1.102678   0.000000
    10  O    4.320762   3.595678   1.403296   2.073433   0.000000
    11  H    4.857752   4.258477   1.909668   2.343946   0.963136
    12  C    2.825246   2.845572   1.526841   2.133285   2.403848
    13  H    2.723915   3.326687   2.147187   3.041164   2.608464
    14  O    4.184981   4.054401   2.318427   2.503894   2.747120
    15  H    4.391052   4.602031   3.171143   3.366169   3.652656
    16  C    2.143309   2.442551   2.525260   2.779170   3.754115
    17  H    3.059251   2.808488   2.899186   2.717993   4.175697
    18  O    2.452137   3.599137   3.790246   4.167429   4.849834
    19  C    2.146146   2.335040   4.207639   4.284011   5.557628
    20  H    2.483387   3.292581   4.887034   5.032691   6.204784
    21  H    3.045404   2.579270   4.308736   4.100074   5.708705
    22  O    2.642783   2.742717   4.985315   5.126486   6.250203
    23  H    2.781850   2.276082   4.625834   4.730116   5.833230
    24  C    3.831781   4.825510   4.646830   4.893300   5.577759
    25  H    4.378341   5.002833   4.913315   4.912302   5.942478
    26  C    5.889930   6.703938   5.753685   5.963592   6.257576
    27  H    6.284364   6.859322   5.989412   5.998923   6.597548
    28  O    4.480715   5.343938   4.504768   4.828043   5.121330
    29  C    4.515848   5.905081   5.981373   6.327066   6.875157
    30  H    4.362123   6.002803   6.010018   6.533626   6.774395
    31  O    4.623277   6.008911   6.591858   6.853838   7.656439
    32  H    3.887229   5.376512   6.210079   6.528672   7.318693
    33  C    5.979742   7.236775   7.057306   7.317335   7.848790
    34  H    6.362812   7.385570   7.272320   7.369121   8.150762
    35  O    6.867171   8.328636   8.284750   8.617567   9.053174
    36  H    6.803102   8.295754   8.520527   8.829297   9.396243
    37  C    6.425161   7.580094   6.917834   7.223853   7.469863
    38  H    6.363664   7.705644   6.991680   7.453721   7.425101
    39  O    7.800691   8.859210   8.094779   8.313310   8.586372
    40  H    8.224220   9.420348   8.817757   9.069757   9.356184
    41  C    6.690102   7.377649   5.976698   6.237506   6.144152
    42  H    7.726075   8.412238   7.018278   7.215926   7.162999
    43  H    6.581403   7.461350   6.029755   6.471742   6.067116
    44  O    6.690156   6.991743   5.302933   5.428695   5.338550
    45  H    6.126387   6.395238   4.563336   4.803952   4.474038
                   11         12         13         14         15
    11  H    0.000000
    12  C    2.457813   0.000000
    13  H    2.720263   1.099808   0.000000
    14  O    2.278023   1.413479   2.077539   0.000000
    15  H    3.165439   1.935392   2.374967   0.967971   0.000000
    16  C    3.919646   1.530604   2.142618   2.468723   2.570057
    17  H    4.231747   2.154115   3.036751   2.597116   2.676657
    18  O    4.921292   2.487614   2.603038   3.190292   2.857059
    19  C    6.016208   3.874305   4.285373   4.954459   5.079859
    20  H    6.569262   4.233406   4.524004   5.221062   5.144781
    21  H    6.096344   4.092229   4.739909   4.960669   5.115565
    22  O    6.861330   4.919354   5.195341   6.129671   6.342828
    23  H    6.523579   4.854673   5.178014   6.089343   6.444948
    24  C    5.419723   3.202666   3.365850   3.327428   2.632897
    25  H    5.744302   3.613885   4.060244   3.545257   2.885591
    26  C    5.746362   4.315567   4.381571   3.658002   2.690835
    27  H    6.062299   4.646566   4.949432   3.868019   2.946797
    28  O    4.761133   3.006869   3.039573   2.675650   1.782440
    29  C    6.755729   4.525785   4.439140   4.751695   4.006965
    30  H    6.699805   4.555768   4.204125   4.917310   4.227853
    31  O    7.658325   5.274323   5.288938   5.692228   5.054396
    32  H    7.437901   5.000275   4.974039   5.646905   5.141770
    33  C    7.570653   5.561304   5.521376   5.441879   4.550322
    34  H    7.845943   5.840371   5.998477   5.613718   4.733465
    35  O    8.809216   6.782101   6.610525   6.756308   5.872390
    36  H    9.232566   7.061129   6.926426   7.175552   6.341261
    37  C    7.041649   5.409785   5.292587   5.004283   4.051863
    38  H    7.033323   5.481940   5.143486   5.204425   4.309451
    39  O    8.061488   6.622476   6.570406   6.024439   5.058414
    40  H    8.879802   7.317662   7.209700   6.835870   5.870331
    41  C    5.470753   4.678053   4.639371   3.747988   2.904913
    42  H    6.443434   5.740685   5.729516   4.749528   3.912602
    43  H    5.445010   4.725958   4.432783   3.988885   3.232138
    44  O    4.548650   4.245831   4.411755   3.024898   2.406012
    45  H    3.684566   3.584007   3.667345   2.401350   1.971495
                   16         17         18         19         20
    16  C    0.000000
    17  H    1.100049   0.000000
    18  O    1.430897   2.076722   0.000000
    19  C    2.540083   2.712804   2.909469   0.000000
    20  H    2.774073   2.984035   2.581014   1.089934   0.000000
    21  H    2.762091   2.483755   3.355318   1.099211   1.777265
    22  O    3.772784   4.047192   4.128303   1.404882   2.024267
    23  H    3.923837   4.185773   4.561059   1.911473   2.802689
    24  C    2.437667   2.636587   1.381860   4.041433   3.555511
    25  H    2.695809   2.422752   2.048467   4.076542   3.627465
    26  C    4.289765   4.339135   3.597728   6.346223   5.939007
    27  H    4.466494   4.239461   3.926458   6.399114   6.012461
    28  O    2.953699   3.213946   2.299487   5.109332   4.796277
    29  C    3.701611   4.010533   2.334594   4.725939   3.946360
    30  H    3.940612   4.505315   2.546555   5.017278   4.279271
    31  O    4.117482   4.315788   2.817205   4.334989   3.358359
    32  H    3.762119   4.094961   2.523373   3.619203   2.606553
    33  C    4.902074   5.021825   3.666241   6.093414   5.311375
    34  H    5.061811   4.941849   3.980166   6.132842   5.367168
    35  O    6.094563   6.301413   4.752903   7.017776   6.120716
    36  H    6.191556   6.378119   4.824018   6.757591   5.782300
    37  C    5.165783   5.330659   4.115702   6.871448   6.250821
    38  H    5.384901   5.755040   4.279755   7.117387   6.503805
    39  O    6.421671   6.451806   5.443776   8.123365   7.485956
    40  H    7.002444   7.070823   5.899057   8.504089   7.771270
    41  C    5.112012   5.225431   4.662688   7.428901   7.154516
    42  H    6.110931   6.137627   5.603419   8.361118   8.028654
    43  H    5.289094   5.616637   4.760430   7.605380   7.323947
    44  O    4.936292   4.920420   4.891848   7.392951   7.315978
    45  H    4.505551   4.631405   4.602898   7.030568   7.046741
                   21         22         23         24         25
    21  H    0.000000
    22  O    2.078400   0.000000
    23  H    2.356575   0.963286   0.000000
    24  C    4.266774   5.336132   5.821888   0.000000
    25  H    4.020844   5.447856   5.929860   1.104097   0.000000
    26  C    6.447793   7.666890   8.064067   2.391513   2.642412
    27  H    6.319084   7.775847   8.172791   2.654922   2.426271
    28  O    5.316200   6.391290   6.741654   1.418668   2.058608
    29  C    5.115911   5.854652   6.507099   1.520987   2.170161
    30  H    5.593714   6.010939   6.634684   2.127971   3.056894
    31  O    4.718461   5.326790   6.116133   2.424940   2.676542
    32  H    4.159450   4.488776   5.302560   2.638905   3.008045
    33  C    6.336233   7.277208   7.930911   2.474981   2.745244
    34  H    6.192709   7.373791   8.030167   2.718205   2.524416
    35  O    7.360512   8.070680   8.804397   3.738683   4.076463
    36  H    7.112414   7.724957   8.522533   3.960024   4.221284
    37  C    7.100773   8.111586   8.645659   2.870669   3.261140
    38  H    7.494342   8.268007   8.787936   3.265461   3.935347
    39  O    8.256330   9.394838   9.939774   4.129395   4.278895
    40  H    8.687651   9.721399  10.333803   4.618045   4.797431
    41  C    7.538593   8.723159   9.007640   3.681457   3.999225
    42  H    8.422899   9.679208   9.998820   4.495560   4.687750
    43  H    7.861229   8.815292   9.092296   3.954732   4.527589
    44  O    7.377419   8.693849   8.841520   4.122415   4.273888
    45  H    7.085634   8.266270   8.344364   4.088211   4.387451
                   26         27         28         29         30
    26  C    0.000000
    27  H    1.098658   0.000000
    28  O    1.432143   2.074518   0.000000
    29  C    2.878600   3.283257   2.404959   0.000000
    30  H    3.249084   3.931774   2.641427   1.097632   0.000000
    31  O    4.148018   4.320306   3.652122   1.409190   2.080368
    32  H    4.697631   4.937754   3.931086   1.935521   2.283551
    33  C    2.489081   2.759972   2.832690   1.514732   2.147873
    34  H    2.738451   2.550873   3.218343   2.138030   3.050473
    35  O    3.706667   4.045962   4.107430   2.424047   2.669030
    36  H    4.402342   4.643821   4.614765   2.540259   2.866342
    37  C    1.524275   2.154609   2.416640   2.486050   2.737040
    38  H    2.151121   3.059656   2.684648   2.732542   2.522977
    39  O    2.368941   2.591284   3.626369   3.733407   4.061408
    40  H    3.196277   3.427327   4.313734   3.913909   4.189266
    41  C    1.517002   2.146120   2.369814   4.248178   4.370598
    42  H    2.125265   2.465977   3.309594   4.876231   5.059251
    43  H    2.137123   3.046381   2.610047   4.355072   4.197486
    44  O    2.420083   2.647625   2.814974   5.076922   5.276539
    45  H    2.835721   3.239191   2.762254   5.142482   5.212561
                   31         32         33         34         35
    31  O    0.000000
    32  H    0.961734   0.000000
    33  C    2.354128   3.193431   0.000000
    34  H    2.575852   3.483466   1.100400   0.000000
    35  O    2.829879   3.661345   1.410042   2.068456   0.000000
    36  H    2.428587   3.243650   1.929570   2.337701   0.962795
    37  C    3.700348   4.405207   1.517073   2.138141   2.357132
    38  H    4.017426   4.590168   2.132957   3.039605   2.570885
    39  O    4.760607   5.575211   2.411541   2.623800   2.815420
    40  H    4.771618   5.630022   2.476687   2.743782   2.366710
    41  C    5.588778   6.071506   3.850314   4.170299   4.877076
    42  H    6.169707   6.766114   4.154559   4.370340   5.021382
    43  H    5.758195   6.157551   4.103716   4.670607   4.959163
    44  O    6.341548   6.718293   4.908388   5.063664   6.085355
    45  H    6.410809   6.657043   5.236007   5.503344   6.422921
                   36         37         38         39         40
    36  H    0.000000
    37  C    3.194611   0.000000
    38  H    3.434561   1.100368   0.000000
    39  O    3.701240   1.407185   2.074365   0.000000
    40  H    3.241026   1.920867   2.368012   0.963249   0.000000
    41  C    5.683861   2.524940   2.729334   2.924788   3.830696
    42  H    5.890419   2.732091   3.032203   2.566592   3.472756
    43  H    5.791144   2.743821   2.488771   3.308516   4.078598
    44  O    6.815530   3.772303   4.054297   4.183872   5.127406
    45  H    7.112670   4.183446   4.295409   4.823464   5.729314
                   41         42         43         44         45
    41  C    0.000000
    42  H    1.090337   0.000000
    43  H    1.096225   1.774714   0.000000
    44  O    1.411619   2.035614   2.084848   0.000000
    45  H    1.954443   2.798958   2.206496   0.960638   0.000000
 Stoichiometry    C12H22O11
 Framework group  C1[X(C12H22O11)]
 Deg. of freedom   129
 Full point group                 C1      NOp   1
 Largest Abelian subgroup         C1      NOp   1
 Largest concise Abelian subgroup C1      NOp   1
                         Standard orientation:                         
 ---------------------------------------------------------------------
 Center     Atomic      Atomic             Coordinates (Angstroms)
 Number     Number       Type             X           Y           Z
 ---------------------------------------------------------------------
      1          6           0        3.966257   -0.495679   -0.504904
      2          1           0        3.827654   -0.324580   -1.579647
      3          8           0        5.283942   -0.845724   -0.322946
      4          1           0        5.380768   -1.228397    0.554555
      5          6           0        2.433288    1.255615   -0.075929
      6          1           0        2.343352    1.434829   -1.157770
      7          8           0        3.703049    0.705067    0.210462
      8          6           0        2.985198   -1.530282    0.018451
      9          1           0        3.149809   -1.605138    1.106200
     10          8           0        3.218649   -2.761213   -0.613648
     11          1           0        2.511544   -3.348084   -0.325177
     12          6           0        1.537039   -1.095542   -0.193873
     13          1           0        1.327709   -1.090003   -1.273562
     14          8           0        0.780253   -2.093609    0.461153
     15          1           0       -0.144670   -1.808567    0.445808
     16          6           0        1.294928    0.317889    0.341238
     17          1           0        1.213852    0.273655    1.437403
     18          8           0        0.136499    0.960346   -0.199833
     19          6           0        2.393268    2.587028    0.652171
     20          1           0        1.442277    3.085310    0.464323
     21          1           0        2.478521    2.391151    1.730424
     22          8           0        3.418494    3.432951    0.197176
     23          1           0        4.231510    2.918658    0.246439
     24          6           0       -1.121547    0.629827    0.266658
     25          1           0       -1.164580    0.729292    1.365423
     26          6           0       -2.745045   -1.124576    0.341877
     27          1           0       -2.814143   -1.048570    1.435722
     28          8           0       -1.442568   -0.707133   -0.082773
     29          6           0       -2.104927    1.583787   -0.393891
     30          1           0       -2.006743    1.462123   -1.480332
     31          8           0       -1.879676    2.917781    0.000494
     32          1           0       -1.029633    3.192674   -0.355586
     33          6           0       -3.512983    1.222720    0.032045
     34          1           0       -3.597003    1.358688    1.120775
     35          8           0       -4.480449    2.001492   -0.635595
     36          1           0       -4.259828    2.926004   -0.482044
     37          6           0       -3.802113   -0.230127   -0.295291
     38          1           0       -3.760824   -0.349000   -1.388440
     39          8           0       -5.056210   -0.621953    0.208577
     40          1           0       -5.689961    0.046436   -0.073319
     41          6           0       -2.898501   -2.576913   -0.068566
     42          1           0       -3.892932   -2.909685    0.230107
     43          1           0       -2.822642   -2.642837   -1.160174
     44          8           0       -1.946898   -3.397344    0.574872
     45          1           0       -1.153866   -3.451713    0.035456
 ---------------------------------------------------------------------
 Rotational constants (GHZ):           0.3975939           0.1554260           0.1150394
 Leave Link  202 at Thu Mar 16 19:25:03 2023, MaxMem=   262144000 cpu:               0.5 elap:               0.1
 (Enter /dragofs/sw/campus/0.2/software/gaussian/16.gaussian/gaussian/g16_legacy/l301.exe)
 Standard basis: 6-311G(d,p) (5D, 7F)
 Ernie: Thresh=  0.10000D-02 Tol=  0.10000D-05 Strict=F.
 There are   569 symmetry adapted cartesian basis functions of A   symmetry.
 There are   546 symmetry adapted basis functions of A   symmetry.
   546 basis functions,   912 primitive gaussians,   569 cartesian basis functions
    91 alpha electrons       91 beta electrons
       nuclear repulsion energy      2313.2280666952 Hartrees.
 IExCor= 4336 DFT=T Ex+Corr=M062X ExCW=0 ScaHFX=  0.540000
 ScaDFX=  1.000000  1.000000  1.000000  1.000000 ScalE2=  1.000000  1.000000
 IRadAn=      5 IRanWt=     -1 IRanGd=            0 ICorTp=0 IEmpDi=  4
 NAtoms=   45 NActive=   45 NUniq=   45 SFac= 1.00D+00 NAtFMM=   60 NAOKFM=F Big=F
 Integral buffers will be    131072 words long.
 Raffenetti 2 integral format.
 Two-electron integral symmetry is turned on.
 Leave Link  301 at Thu Mar 16 19:25:03 2023, MaxMem=   262144000 cpu:               0.7 elap:               0.1
 (Enter /dragofs/sw/campus/0.2/software/gaussian/16.gaussian/gaussian/g16_legacy/l302.exe)
 NPDir=0 NMtPBC=     1 NCelOv=     1 NCel=       1 NClECP=     1 NCelD=      1
         NCelK=      1 NCelE2=     1 NClLst=     1 CellRange=     0.0.
 One-electron integrals computed using PRISM.
 One-electron integral symmetry used in STVInt
 NBasis=   546 RedAO= T EigKep=  7.16D-04  NBF=   546
 NBsUse=   546 1.00D-06 EigRej= -1.00D+00 NBFU=   546
 Precomputing XC quadrature grid using
 IXCGrd= 4 IRadAn=           5 IRanWt=          -1 IRanGd=           0 AccXCQ= 0.00D+00.
 Generated NRdTot=       0 NPtTot=           0 NUsed=           0 NTot=          32
 NSgBfM=   557   556   556   557   557 MxSgAt=    45 MxSgA2=    45.
 Leave Link  302 at Thu Mar 16 19:25:05 2023, MaxMem=   262144000 cpu:              11.4 elap:               1.5
 (Enter /dragofs/sw/campus/0.2/software/gaussian/16.gaussian/gaussian/g16_legacy/l303.exe)
 DipDrv:  MaxL=1.
 Leave Link  303 at Thu Mar 16 19:25:05 2023, MaxMem=   262144000 cpu:               0.5 elap:               0.1
 (Enter /dragofs/sw/campus/0.2/software/gaussian/16.gaussian/gaussian/g16_legacy/l401.exe)
 ExpMin= 1.03D-01 ExpMax= 8.59D+03 ExpMxC= 1.30D+03 IAcc=3 IRadAn=         5 AccDes= 0.00D+00
 Harris functional with IExCor= 1009 and IRadAn=       5 diagonalized for initial guess.
 HarFok:  IExCor= 1009 AccDes= 0.00D+00 IRadAn=         5 IDoV= 1 UseB2=F ITyADJ=14
 ICtDFT=  3500011 ScaDFX=  1.000000  1.000000  1.000000  1.000000
 FoFCou: FMM=F IPFlag=           0 FMFlag=      100000 FMFlg1=           0
         NFxFlg=           0 DoJE=T BraDBF=F KetDBF=T FulRan=T
         wScrn=  0.000000 ICntrl=       500 IOpCl=  0 I1Cent=   200000004 NGrid=           0
         NMat0=    1 NMatS0=      1 NMatT0=    0 NMatD0=    1 NMtDS0=    0 NMtDT0=    0
 Petite list used in FoFCou.
 Harris En= -1297.12003745666    
 JPrj=0 DoOrth=F DoCkMO=F.
 Leave Link  401 at Thu Mar 16 19:25:10 2023, MaxMem=   262144000 cpu:              40.1 elap:               5.1
 (Enter /dragofs/sw/campus/0.2/software/gaussian/16.gaussian/gaussian/g16_legacy/l502.exe)
 Integral symmetry usage will be decided dynamically.
 Closed shell SCF:
 Using DIIS extrapolation, IDIIS=  1040.
 NGot=   262144000 LenX=   261486196 LenY=   261161866
 Requested convergence on RMS density matrix=1.00D-08 within 128 cycles.
 Requested convergence on MAX density matrix=1.00D-06.
 Requested convergence on             energy=1.00D-06.
 No special actions if energy rises.
 Fock matrices will be formed incrementally for  20 cycles.
 Integral accuracy reduced to 1.0D-05 until final iterations.

 Cycle   1  Pass 0  IDiag  1:
 FoFJK:  IHMeth= 1 ICntrl=       0 DoSepK=F KAlg= 0 I1Cent=           0 FoldK=F
 IRaf= 740000000 NMat=       1 IRICut=       1 DoRegI=T DoRafI=F ISym2E= 0 IDoP0=0 IntGTp=1.
 FoFCou: FMM=F IPFlag=           0 FMFlag=      100000 FMFlg1=           0
         NFxFlg=           0 DoJE=F BraDBF=F KetDBF=F FulRan=T
         wScrn=  0.000000 ICntrl=         0 IOpCl=  0 I1Cent=           0 NGrid=           0
         NMat0=    1 NMatS0=      1 NMatT0=    0 NMatD0=    1 NMtDS0=    0 NMtDT0=    0
 Symmetry not used in FoFCou.
 E= -1297.33923416061    
 DIIS: error= 2.07D-02 at cycle   1 NSaved=   1.
 NSaved= 1 IEnMin= 1 EnMin= -1297.33923416061     IErMin= 1 ErrMin= 2.07D-02
 ErrMax= 2.07D-02  0.00D+00 EMaxC= 1.00D-01 BMatC= 8.51D-01 BMatP= 8.51D-01
 IDIUse=3 WtCom= 7.93D-01 WtEn= 2.07D-01
 Coeff-Com:  0.100D+01
 Coeff-En:   0.100D+01
 Coeff:      0.100D+01
 Gap=     0.430 Goal=   None    Shift=    0.000
 GapD=    0.430 DampG=2.000 DampE=0.500 DampFc=1.0000 IDamp=-1.
 RMSDP=2.56D-03 MaxDP=1.91D-01              OVMax= 1.08D-01

 Cycle   2  Pass 0  IDiag  1:
 RMSU=  2.55D-03    CP:  1.03D+00
 E= -1297.42672109994     Delta-E=       -0.087486939331 Rises=F Damp=F
 DIIS: error= 2.21D-02 at cycle   2 NSaved=   2.
 NSaved= 2 IEnMin= 2 EnMin= -1297.42672109994     IErMin= 1 ErrMin= 2.07D-02
 ErrMax= 2.21D-02  0.00D+00 EMaxC= 1.00D-01 BMatC= 6.02D-01 BMatP= 8.51D-01
 IDIUse=3 WtCom= 7.79D-01 WtEn= 2.21D-01
 Coeff-Com:  0.453D+00 0.547D+00
 Coeff-En:   0.445D+00 0.555D+00
 Coeff:      0.451D+00 0.549D+00
 Gap=     0.417 Goal=   None    Shift=    0.000
 RMSDP=1.45D-03 MaxDP=9.57D-02 DE=-8.75D-02 OVMax= 5.74D-02

 Cycle   3  Pass 0  IDiag  1:
 RMSU=  4.53D-04    CP:  1.01D+00  4.63D-01
 E= -1297.81266808577     Delta-E=       -0.385946985828 Rises=F Damp=F
 DIIS: error= 3.77D-03 at cycle   3 NSaved=   3.
 NSaved= 3 IEnMin= 3 EnMin= -1297.81266808577     IErMin= 3 ErrMin= 3.77D-03
 ErrMax= 3.77D-03  0.00D+00 EMaxC= 1.00D-01 BMatC= 2.27D-02 BMatP= 6.02D-01
 IDIUse=3 WtCom= 9.62D-01 WtEn= 3.77D-02
 Coeff-Com:  0.660D-01 0.189D+00 0.745D+00
 Coeff-En:   0.000D+00 0.000D+00 0.100D+01
 Coeff:      0.635D-01 0.182D+00 0.755D+00
 Gap=     0.394 Goal=   None    Shift=    0.000
 RMSDP=2.70D-04 MaxDP=1.10D-02 DE=-3.86D-01 OVMax= 1.31D-02

 Cycle   4  Pass 0  IDiag  1:
 RMSU=  1.87D-04    CP:  1.02D+00  5.19D-01  7.11D-01
 E= -1297.82576344184     Delta-E=       -0.013095356070 Rises=F Damp=F
 DIIS: error= 1.52D-03 at cycle   4 NSaved=   4.
 NSaved= 4 IEnMin= 4 EnMin= -1297.82576344184     IErMin= 4 ErrMin= 1.52D-03
 ErrMax= 1.52D-03  0.00D+00 EMaxC= 1.00D-01 BMatC= 2.79D-03 BMatP= 2.27D-02
 IDIUse=3 WtCom= 9.85D-01 WtEn= 1.52D-02
 Coeff-Com:  0.292D-02 0.488D-01 0.349D+00 0.600D+00
 Coeff-En:   0.000D+00 0.000D+00 0.505D-01 0.949D+00
 Coeff:      0.288D-02 0.481D-01 0.344D+00 0.605D+00
 Gap=     0.386 Goal=   None    Shift=    0.000
 RMSDP=1.03D-04 MaxDP=3.58D-03 DE=-1.31D-02 OVMax= 4.71D-03

 Cycle   5  Pass 0  IDiag  1:
 RMSU=  3.68D-05    CP:  1.01D+00  5.12D-01  8.09D-01  5.62D-01
 E= -1297.82817107344     Delta-E=       -0.002407631602 Rises=F Damp=F
 DIIS: error= 1.74D-04 at cycle   5 NSaved=   5.
 NSaved= 5 IEnMin= 5 EnMin= -1297.82817107344     IErMin= 5 ErrMin= 1.74D-04
 ErrMax= 1.74D-04  0.00D+00 EMaxC= 1.00D-01 BMatC= 4.90D-05 BMatP= 2.79D-03
 IDIUse=3 WtCom= 9.98D-01 WtEn= 1.74D-03
 Coeff-Com: -0.181D-02 0.695D-02 0.674D-01 0.180D+00 0.747D+00
 Coeff-En:   0.000D+00 0.000D+00 0.000D+00 0.000D+00 0.100D+01
 Coeff:     -0.181D-02 0.694D-02 0.673D-01 0.180D+00 0.747D+00
 Gap=     0.386 Goal=   None    Shift=    0.000
 RMSDP=1.54D-05 MaxDP=7.37D-04 DE=-2.41D-03 OVMax= 9.80D-04

 Cycle   6  Pass 0  IDiag  1:
 RMSU=  1.07D-05    CP:  1.01D+00  5.13D-01  8.10D-01  6.08D-01  8.30D-01
 E= -1297.82820265591     Delta-E=       -0.000031582467 Rises=F Damp=F
 DIIS: error= 9.71D-05 at cycle   6 NSaved=   6.
 NSaved= 6 IEnMin= 6 EnMin= -1297.82820265591     IErMin= 6 ErrMin= 9.71D-05
 ErrMax= 9.71D-05  0.00D+00 EMaxC= 1.00D-01 BMatC= 8.97D-06 BMatP= 4.90D-05
 IDIUse=1 WtCom= 1.00D+00 WtEn= 0.00D+00
 Coeff-Com: -0.112D-02 0.473D-03 0.119D-01 0.535D-01 0.363D+00 0.572D+00
 Coeff:     -0.112D-02 0.473D-03 0.119D-01 0.535D-01 0.363D+00 0.572D+00
 Gap=     0.386 Goal=   None    Shift=    0.000
 RMSDP=4.88D-06 MaxDP=3.75D-04 DE=-3.16D-05 OVMax= 3.27D-04

 Initial convergence to 1.0D-05 achieved.  Increase integral accuracy.
 Cycle   7  Pass 1  IDiag  1:
 E= -1297.82815596729     Delta-E=        0.000046688613 Rises=F Damp=F
 DIIS: error= 4.41D-05 at cycle   1 NSaved=   1.
 NSaved= 1 IEnMin= 1 EnMin= -1297.82815596729     IErMin= 1 ErrMin= 4.41D-05
 ErrMax= 4.41D-05  0.00D+00 EMaxC= 1.00D-01 BMatC= 1.11D-06 BMatP= 1.11D-06
 IDIUse=1 WtCom= 1.00D+00 WtEn= 0.00D+00
 Coeff-Com:  0.100D+01
 Coeff:      0.100D+01
 Gap=     0.386 Goal=   None    Shift=    0.000
 RMSDP=4.88D-06 MaxDP=3.75D-04 DE= 4.67D-05 OVMax= 1.65D-04

 Cycle   8  Pass 1  IDiag  1:
 RMSU=  1.55D-05    CP:  1.00D+00
 E= -1297.82815661037     Delta-E=       -0.000000643081 Rises=F Damp=F
 DIIS: error= 2.49D-05 at cycle   2 NSaved=   2.
 NSaved= 2 IEnMin= 2 EnMin= -1297.82815661037     IErMin= 2 ErrMin= 2.49D-05
 ErrMax= 2.49D-05  0.00D+00 EMaxC= 1.00D-01 BMatC= 6.18D-07 BMatP= 1.11D-06
 IDIUse=1 WtCom= 1.00D+00 WtEn= 0.00D+00
 Coeff-Com:  0.403D+00 0.597D+00
 Coeff:      0.403D+00 0.597D+00
 Gap=     0.386 Goal=   None    Shift=    0.000
 RMSDP=1.45D-06 MaxDP=1.30D-04 DE=-6.43D-07 OVMax= 9.85D-05

 Cycle   9  Pass 1  IDiag  1:
 RMSU=  1.45D-06    CP:  1.00D+00  1.01D+00
 E= -1297.82815695418     Delta-E=       -0.000000343802 Rises=F Damp=F
 DIIS: error= 9.79D-06 at cycle   3 NSaved=   3.
 NSaved= 3 IEnMin= 3 EnMin= -1297.82815695418     IErMin= 3 ErrMin= 9.79D-06
 ErrMax= 9.79D-06  0.00D+00 EMaxC= 1.00D-01 BMatC= 9.99D-08 BMatP= 6.18D-07
 IDIUse=1 WtCom= 1.00D+00 WtEn= 0.00D+00
 Coeff-Com: -0.225D-01 0.279D+00 0.744D+00
 Coeff:     -0.225D-01 0.279D+00 0.744D+00
 Gap=     0.386 Goal=   None    Shift=    0.000
 RMSDP=5.51D-07 MaxDP=3.43D-05 DE=-3.44D-07 OVMax= 3.57D-05

 Cycle  10  Pass 1  IDiag  1:
 RMSU=  2.63D-07    CP:  1.00D+00  1.03D+00  7.37D-01
 E= -1297.82815702176     Delta-E=       -0.000000067581 Rises=F Damp=F
 DIIS: error= 7.17D-07 at cycle   4 NSaved=   4.
 NSaved= 4 IEnMin= 4 EnMin= -1297.82815702176     IErMin= 4 ErrMin= 7.17D-07
 ErrMax= 7.17D-07  0.00D+00 EMaxC= 1.00D-01 BMatC= 1.02D-09 BMatP= 9.99D-08
 IDIUse=1 WtCom= 1.00D+00 WtEn= 0.00D+00
 Coeff-Com: -0.124D-01 0.760D-01 0.229D+00 0.707D+00
 Coeff:     -0.124D-01 0.760D-01 0.229D+00 0.707D+00
 Gap=     0.386 Goal=   None    Shift=    0.000
 RMSDP=8.59D-08 MaxDP=3.04D-06 DE=-6.76D-08 OVMax= 4.13D-06

 Cycle  11  Pass 1  IDiag  1:
 RMSU=  8.21D-08    CP:  1.00D+00  1.03D+00  7.51D-01  9.62D-01
 E= -1297.82815702260     Delta-E=       -0.000000000841 Rises=F Damp=F
 DIIS: error= 3.21D-07 at cycle   5 NSaved=   5.
 NSaved= 5 IEnMin= 5 EnMin= -1297.82815702260     IErMin= 5 ErrMin= 3.21D-07
 ErrMax= 3.21D-07  0.00D+00 EMaxC= 1.00D-01 BMatC= 1.95D-10 BMatP= 1.02D-09
 IDIUse=1 WtCom= 1.00D+00 WtEn= 0.00D+00
 Coeff-Com: -0.143D-02-0.107D-01-0.193D-01 0.277D+00 0.755D+00
 Coeff:     -0.143D-02-0.107D-01-0.193D-01 0.277D+00 0.755D+00
 Gap=     0.386 Goal=   None    Shift=    0.000
 RMSDP=2.95D-08 MaxDP=1.26D-06 DE=-8.41D-10 OVMax= 1.66D-06

 Cycle  12  Pass 1  IDiag  1:
 RMSU=  1.86D-08    CP:  1.00D+00  1.03D+00  7.52D-01  1.04D+00  9.19D-01
 E= -1297.82815702272     Delta-E=       -0.000000000123 Rises=F Damp=F
 DIIS: error= 1.11D-07 at cycle   6 NSaved=   6.
 NSaved= 6 IEnMin= 6 EnMin= -1297.82815702272     IErMin= 6 ErrMin= 1.11D-07
 ErrMax= 1.11D-07  0.00D+00 EMaxC= 1.00D-01 BMatC= 2.14D-11 BMatP= 1.95D-10
 IDIUse=1 WtCom= 1.00D+00 WtEn= 0.00D+00
 Coeff-Com:  0.823D-03-0.131D-01-0.347D-01 0.375D-01 0.311D+00 0.699D+00
 Coeff:      0.823D-03-0.131D-01-0.347D-01 0.375D-01 0.311D+00 0.699D+00
 Gap=     0.386 Goal=   None    Shift=    0.000
 RMSDP=1.07D-08 MaxDP=5.55D-07 DE=-1.23D-10 OVMax= 6.50D-07

 Cycle  13  Pass 1  IDiag  1:
 RMSU=  7.56D-09    CP:  1.00D+00  1.03D+00  7.51D-01  1.06D+00  9.83D-01
                    CP:  9.19D-01
 E= -1297.82815702279     Delta-E=       -0.000000000068 Rises=F Damp=F
 DIIS: error= 2.83D-08 at cycle   7 NSaved=   7.
 NSaved= 7 IEnMin= 7 EnMin= -1297.82815702279     IErMin= 7 ErrMin= 2.83D-08
 ErrMax= 2.83D-08  0.00D+00 EMaxC= 1.00D-01 BMatC= 1.46D-12 BMatP= 2.14D-11
 IDIUse=1 WtCom= 1.00D+00 WtEn= 0.00D+00
 Coeff-Com:  0.413D-03-0.452D-02-0.126D-01-0.482D-02 0.737D-01 0.276D+00
 Coeff-Com:  0.671D+00
 Coeff:      0.413D-03-0.452D-02-0.126D-01-0.482D-02 0.737D-01 0.276D+00
 Coeff:      0.671D+00
 Gap=     0.386 Goal=   None    Shift=    0.000
 RMSDP=2.29D-09 MaxDP=1.27D-07 DE=-6.82D-11 OVMax= 1.29D-07

 SCF Done:  E(RM062X) =  -1297.82815702     A.U. after   13 cycles
            NFock= 13  Conv=0.23D-08     -V/T= 2.0029
 KE= 1.294093423436D+03 PE=-7.673491011136D+03 EE= 2.768341363982D+03
 Leave Link  502 at Thu Mar 16 19:28:35 2023, MaxMem=   262144000 cpu:            1638.4 elap:             205.8
 (Enter /dragofs/sw/campus/0.2/software/gaussian/16.gaussian/gaussian/g16_legacy/l601.exe)
 Copying SCF densities to generalized density rwf, IOpCl= 0 IROHF=0.

 **********************************************************************

            Population analysis using the SCF density.

 **********************************************************************

 Orbital symmetries:
       Occupied  (A) (A) (A) (A) (A) (A) (A) (A) (A) (A) (A) (A)
                 (A) (A) (A) (A) (A) (A) (A) (A) (A) (A) (A) (A)
                 (A) (A) (A) (A) (A) (A) (A) (A) (A) (A) (A) (A)
                 (A) (A) (A) (A) (A) (A) (A) (A) (A) (A) (A) (A)
                 (A) (A) (A) (A) (A) (A) (A) (A) (A) (A) (A) (A)
                 (A) (A) (A) (A) (A) (A) (A) (A) (A) (A) (A) (A)
                 (A) (A) (A) (A) (A) (A) (A) (A) (A) (A) (A) (A)
                 (A) (A) (A) (A) (A) (A) (A)
       Virtual   (A) (A) (A) (A) (A) (A) (A) (A) (A) (A) (A) (A)
                 (A) (A) (A) (A) (A) (A) (A) (A) (A) (A) (A) (A)
                 (A) (A) (A) (A) (A) (A) (A) (A) (A) (A) (A) (A)
                 (A) (A) (A) (A) (A) (A) (A) (A) (A) (A) (A) (A)
                 (A) (A) (A) (A) (A) (A) (A) (A) (A) (A) (A) (A)
                 (A) (A) (A) (A) (A) (A) (A) (A) (A) (A) (A) (A)
                 (A) (A) (A) (A) (A) (A) (A) (A) (A) (A) (A) (A)
                 (A) (A) (A) (A) (A) (A) (A) (A) (A) (A) (A) (A)
                 (A) (A) (A) (A) (A) (A) (A) (A) (A) (A) (A) (A)
                 (A) (A) (A) (A) (A) (A) (A) (A) (A) (A) (A) (A)
                 (A) (A) (A) (A) (A) (A) (A) (A) (A) (A) (A) (A)
                 (A) (A) (A) (A) (A) (A) (A) (A) (A) (A) (A) (A)
                 (A) (A) (A) (A) (A) (A) (A) (A) (A) (A) (A) (A)
                 (A) (A) (A) (A) (A) (A) (A) (A) (A) (A) (A) (A)
                 (A) (A) (A) (A) (A) (A) (A) (A) (A) (A) (A) (A)
                 (A) (A) (A) (A) (A) (A) (A) (A) (A) (A) (A) (A)
                 (A) (A) (A) (A) (A) (A) (A) (A) (A) (A) (A) (A)
                 (A) (A) (A) (A) (A) (A) (A) (A) (A) (A) (A) (A)
                 (A) (A) (A) (A) (A) (A) (A) (A) (A) (A) (A) (A)
                 (A) (A) (A) (A) (A) (A) (A) (A) (A) (A) (A) (A)
                 (A) (A) (A) (A) (A) (A) (A) (A) (A) (A) (A) (A)
                 (A) (A) (A) (A) (A) (A) (A) (A) (A) (A) (A) (A)
                 (A) (A) (A) (A) (A) (A) (A) (A) (A) (A) (A) (A)
                 (A) (A) (A) (A) (A) (A) (A) (A) (A) (A) (A) (A)
                 (A) (A) (A) (A) (A) (A) (A) (A) (A) (A) (A) (A)
                 (A) (A) (A) (A) (A) (A) (A) (A) (A) (A) (A) (A)
                 (A) (A) (A) (A) (A) (A) (A) (A) (A) (A) (A) (A)
                 (A) (A) (A) (A) (A) (A) (A) (A) (A) (A) (A) (A)
                 (A) (A) (A) (A) (A) (A) (A) (A) (A) (A) (A) (A)
                 (A) (A) (A) (A) (A) (A) (A) (A) (A) (A) (A) (A)
                 (A) (A) (A) (A) (A) (A) (A) (A) (A) (A) (A) (A)
                 (A) (A) (A) (A) (A) (A) (A) (A) (A) (A) (A) (A)
                 (A) (A) (A) (A) (A) (A) (A) (A) (A) (A) (A) (A)
                 (A) (A) (A) (A) (A) (A) (A) (A) (A) (A) (A) (A)
                 (A) (A) (A) (A) (A) (A) (A) (A) (A) (A) (A) (A)
                 (A) (A) (A) (A) (A) (A) (A) (A) (A) (A) (A) (A)
                 (A) (A) (A) (A) (A) (A) (A) (A) (A) (A) (A) (A)
                 (A) (A) (A) (A) (A) (A) (A) (A) (A) (A) (A)
 The electronic state is 1-A.
 Alpha  occ. eigenvalues --  -19.67173 -19.66949 -19.65020 -19.64446 -19.64102
 Alpha  occ. eigenvalues --  -19.63531 -19.63242 -19.62868 -19.62686 -19.62275
 Alpha  occ. eigenvalues --  -19.61371 -10.67426 -10.65032 -10.62072 -10.61669
 Alpha  occ. eigenvalues --  -10.61646 -10.61245 -10.61203 -10.60860 -10.60679
 Alpha  occ. eigenvalues --  -10.60089 -10.59926 -10.59209  -1.24605  -1.21809
 Alpha  occ. eigenvalues --   -1.19251  -1.18787  -1.17323  -1.17239  -1.15922
 Alpha  occ. eigenvalues --   -1.15701  -1.15500  -1.14504  -1.13754  -0.92828
 Alpha  occ. eigenvalues --   -0.91420  -0.88546  -0.87885  -0.81101  -0.78938
 Alpha  occ. eigenvalues --   -0.76820  -0.73292  -0.73084  -0.71773  -0.70720
 Alpha  occ. eigenvalues --   -0.69505  -0.66056  -0.64871  -0.64152  -0.63166
 Alpha  occ. eigenvalues --   -0.62366  -0.61601  -0.59841  -0.59581  -0.58591
 Alpha  occ. eigenvalues --   -0.58166  -0.57143  -0.56544  -0.55323  -0.55202
 Alpha  occ. eigenvalues --   -0.54344  -0.53115  -0.52962  -0.51766  -0.51087
 Alpha  occ. eigenvalues --   -0.50997  -0.50159  -0.48781  -0.48288  -0.47284
 Alpha  occ. eigenvalues --   -0.46211  -0.46056  -0.45350  -0.45089  -0.44224
 Alpha  occ. eigenvalues --   -0.43117  -0.42905  -0.42302  -0.41974  -0.40854
 Alpha  occ. eigenvalues --   -0.39750  -0.39576  -0.38384  -0.37890  -0.37196
 Alpha  occ. eigenvalues --   -0.36792  -0.36149  -0.35759  -0.35449  -0.35144
 Alpha  occ. eigenvalues --   -0.34120
 Alpha virt. eigenvalues --    0.04495   0.05283   0.05999   0.06678   0.07161
 Alpha virt. eigenvalues --    0.07926   0.08403   0.09671   0.10147   0.10385
 Alpha virt. eigenvalues --    0.11260   0.11845   0.12279   0.13149   0.13992
 Alpha virt. eigenvalues --    0.14319   0.14428   0.14564   0.15203   0.16343
 Alpha virt. eigenvalues --    0.17471   0.17571   0.18213   0.18960   0.20482
 Alpha virt. eigenvalues --    0.20595   0.21509   0.22180   0.22743   0.23055
 Alpha virt. eigenvalues --    0.24269   0.25358   0.26130   0.26574   0.26870
 Alpha virt. eigenvalues --    0.27602   0.29204   0.29955   0.30528   0.31458
 Alpha virt. eigenvalues --    0.32832   0.33068   0.34198   0.35526   0.35979
 Alpha virt. eigenvalues --    0.36597   0.38360   0.39848   0.40340   0.40807
 Alpha virt. eigenvalues --    0.41526   0.42011   0.42377   0.43895   0.44313
 Alpha virt. eigenvalues --    0.45021   0.45719   0.46193   0.46536   0.47058
 Alpha virt. eigenvalues --    0.47582   0.48495   0.48896   0.49151   0.50073
 Alpha virt. eigenvalues --    0.50615   0.51593   0.52083   0.52371   0.53096
 Alpha virt. eigenvalues --    0.53752   0.54936   0.55519   0.56186   0.56252
 Alpha virt. eigenvalues --    0.57195   0.57569   0.57953   0.58441   0.58847
 Alpha virt. eigenvalues --    0.59381   0.60236   0.60588   0.60943   0.61956
 Alpha virt. eigenvalues --    0.62468   0.62719   0.63284   0.63912   0.64154
 Alpha virt. eigenvalues --    0.64443   0.64965   0.65341   0.66542   0.66691
 Alpha virt. eigenvalues --    0.66907   0.67489   0.68418   0.69264   0.69717
 Alpha virt. eigenvalues --    0.70252   0.72048   0.76157   0.77878   0.78564
 Alpha virt. eigenvalues --    0.80856   0.82054   0.84562   0.85212   0.86354
 Alpha virt. eigenvalues --    0.88483   0.89129   0.89168   0.90998   0.91383
 Alpha virt. eigenvalues --    0.91756   0.92980   0.93673   0.94736   0.95243
 Alpha virt. eigenvalues --    0.95702   0.96206   0.97304   0.97923   0.98692
 Alpha virt. eigenvalues --    0.99450   1.00252   1.00860   1.02486   1.03294
 Alpha virt. eigenvalues --    1.04014   1.05055   1.06026   1.06655   1.07649
 Alpha virt. eigenvalues --    1.08226   1.09214   1.09738   1.11072   1.11913
 Alpha virt. eigenvalues --    1.13095   1.13304   1.14419   1.15557   1.16888
 Alpha virt. eigenvalues --    1.18583   1.19335   1.20211   1.20914   1.22327
 Alpha virt. eigenvalues --    1.23178   1.25347   1.25732   1.26687   1.28880
 Alpha virt. eigenvalues --    1.30049   1.31808   1.32485   1.34123   1.35927
 Alpha virt. eigenvalues --    1.36793   1.37460   1.39566   1.39850   1.40388
 Alpha virt. eigenvalues --    1.41071   1.41928   1.42447   1.44763   1.45192
 Alpha virt. eigenvalues --    1.46902   1.47819   1.48142   1.49420   1.49812
 Alpha virt. eigenvalues --    1.50249   1.50909   1.51295   1.51692   1.52669
 Alpha virt. eigenvalues --    1.52810   1.53326   1.53849   1.54330   1.55413
 Alpha virt. eigenvalues --    1.55778   1.56491   1.57705   1.57863   1.58450
 Alpha virt. eigenvalues --    1.58566   1.59175   1.59879   1.60645   1.61162
 Alpha virt. eigenvalues --    1.62684   1.62750   1.64029   1.64492   1.65017
 Alpha virt. eigenvalues --    1.65864   1.66786   1.67192   1.68965   1.69562
 Alpha virt. eigenvalues --    1.70495   1.71016   1.72017   1.73511   1.73983
 Alpha virt. eigenvalues --    1.75177   1.76369   1.77227   1.78068   1.79075
 Alpha virt. eigenvalues --    1.79394   1.79527   1.80780   1.81688   1.82456
 Alpha virt. eigenvalues --    1.83093   1.84569   1.84918   1.85099   1.86431
 Alpha virt. eigenvalues --    1.87665   1.89245   1.90510   1.91656   1.91803
 Alpha virt. eigenvalues --    1.92837   1.93659   1.95469   1.96197   1.97071
 Alpha virt. eigenvalues --    1.97881   1.98702   1.99939   2.00785   2.03724
 Alpha virt. eigenvalues --    2.04524   2.05159   2.06437   2.07207   2.07992
 Alpha virt. eigenvalues --    2.08582   2.09130   2.10211   2.10888   2.11088
 Alpha virt. eigenvalues --    2.12423   2.13139   2.13307   2.14413   2.15513
 Alpha virt. eigenvalues --    2.15851   2.16384   2.17502   2.19076   2.20075
 Alpha virt. eigenvalues --    2.21171   2.22465   2.24434   2.25444   2.25923
 Alpha virt. eigenvalues --    2.26575   2.28364   2.29984   2.32305   2.33803
 Alpha virt. eigenvalues --    2.34694   2.39212   2.41157   2.43268   2.44031
 Alpha virt. eigenvalues --    2.45232   2.46039   2.47342   2.48942   2.50867
 Alpha virt. eigenvalues --    2.51225   2.52680   2.52899   2.53548   2.54695
 Alpha virt. eigenvalues --    2.55864   2.57112   2.57925   2.59400   2.59789
 Alpha virt. eigenvalues --    2.60727   2.61290   2.61901   2.62982   2.64855
 Alpha virt. eigenvalues --    2.69294   2.75930   2.76906   2.78070   2.78964
 Alpha virt. eigenvalues --    2.79256   2.80711   2.81695   2.82599   2.83972
 Alpha virt. eigenvalues --    2.84272   2.84949   2.87001   2.88141   2.89975
 Alpha virt. eigenvalues --    2.91982   2.92798   2.95117   2.95701   2.97032
[...]
    34  H    0.000000  -0.000000   0.000001  -0.000000  -0.000000   0.000944
    35  O    0.000000  -0.000000   0.000000  -0.000000  -0.000000   0.006688
    36  H    0.000000  -0.000002   0.000000  -0.000000   0.000000   0.001685
    37  C   -0.000000  -0.000006   0.000000  -0.000000  -0.000000   0.003221
    38  H    0.000000  -0.000001   0.000000   0.000000   0.000000   0.000498
    39  O   -0.000000   0.000000  -0.000000  -0.000000  -0.000000  -0.000346
    40  H    0.000000   0.000000  -0.000000   0.000000   0.000000  -0.000326
    41  C    0.000000   0.000000  -0.000000  -0.000000  -0.000000   0.003773
    42  H   -0.000000  -0.000000  -0.000000  -0.000000   0.000000  -0.000189
    43  H   -0.000000  -0.000000  -0.000000   0.000000   0.000000  -0.000775
    44  O    0.000000   0.000000  -0.000000   0.000000   0.000000  -0.001205
    45  H    0.000000  -0.000000   0.000000   0.000000  -0.000000   0.000416
              25         26         27         28         29         30
     1  C   -0.000028  -0.000003  -0.000003   0.000003  -0.000000   0.000000
     2  H   -0.000022   0.000000  -0.000000  -0.000010   0.000000  -0.000001
     3  O    0.000000   0.000000   0.000000   0.000000   0.000000  -0.000000
     4  H   -0.000001   0.000000   0.000000   0.000000  -0.000000  -0.000000
     5  C    0.000717   0.000021   0.000011  -0.000795  -0.000020  -0.000074
     6  H    0.000153   0.000011   0.000002  -0.000109  -0.000014   0.000076
     7  O   -0.000006   0.000000   0.000000   0.000000   0.000001   0.000001
     8  C    0.000097   0.000053   0.000013   0.000387   0.000038  -0.000003
     9  H    0.000037  -0.000000   0.000008  -0.000010   0.000003   0.000000
    10  O   -0.000008  -0.000002  -0.000001  -0.000002  -0.000000   0.000000
    11  H   -0.000024  -0.000039  -0.000026   0.000004  -0.000002   0.000000
    12  C   -0.005889  -0.000027  -0.000496   0.011579   0.000910  -0.000106
    13  H    0.002592  -0.000782   0.000346   0.002298  -0.000005   0.000099
    14  O    0.008736   0.003733   0.002357  -0.011261   0.000951  -0.000024
    15  H   -0.003460  -0.003579   0.001169   0.004995  -0.000531  -0.000045
    16  C   -0.016619  -0.001084  -0.000309  -0.003554   0.002735  -0.001008
    17  H    0.009219   0.000141   0.000049  -0.000731   0.001105   0.000143
    18  O   -0.048274   0.003901  -0.000035  -0.051154  -0.034786   0.000939
    19  C   -0.000230  -0.000001  -0.000001   0.000029  -0.000122  -0.000027
    20  H    0.000224   0.000007  -0.000000   0.000026   0.000085   0.000127
    21  H   -0.000107  -0.000000  -0.000000   0.000003  -0.000015   0.000001
    22  O    0.000001   0.000000  -0.000000   0.000000   0.000000  -0.000000
    23  H   -0.000000  -0.000000  -0.000000  -0.000000  -0.000000  -0.000000
    24  C    0.402645  -0.081725  -0.010904   0.216448   0.173022  -0.046107
    25  H    0.584582   0.002312   0.009712  -0.053743  -0.061261   0.012399
    26  C    0.002312   5.506113   0.387633   0.191683  -0.014196   0.002095
    27  H    0.009712   0.387633   0.541880  -0.040496   0.003748   0.000357
    28  O   -0.053743   0.191683  -0.040496   8.245219  -0.035850   0.003422
    29  C   -0.061261  -0.014196   0.003748  -0.035850   5.295687   0.381094
    30  H    0.012399   0.002095   0.000357   0.003422   0.381094   0.552071
    31  O    0.009097   0.000248  -0.000178   0.001949   0.237959  -0.033702
    32  H   -0.001396  -0.000001   0.000019   0.000291  -0.040142  -0.005078
    33  C   -0.005019  -0.022228  -0.014172  -0.009372   0.221977  -0.048196
    34  H    0.005123  -0.003582   0.005145   0.000832  -0.051444   0.010118
    35  O   -0.000089   0.003252  -0.000136  -0.000086  -0.041991   0.004517
    36  H   -0.000077  -0.000967  -0.000063  -0.000043  -0.011032  -0.001477
    37  C   -0.002997   0.136153  -0.053128  -0.035205  -0.059519  -0.001812
    38  H   -0.000044  -0.050124   0.010326   0.003608   0.001630   0.006001
    39  O   -0.000116  -0.052080   0.009307   0.001440   0.006524  -0.000001
    40  H   -0.000019   0.012101  -0.000740  -0.000254   0.001493  -0.000060
    41  C    0.001193   0.264535  -0.031864  -0.042028  -0.001912   0.000037
    42  H    0.000095  -0.048434  -0.004160   0.003892   0.000016   0.000015
    43  H    0.000039  -0.068123   0.008526   0.000266  -0.000077  -0.000005
    44  O   -0.000267  -0.055173   0.000703  -0.003533  -0.000039  -0.000002
    45  H    0.000100  -0.000846  -0.000860   0.007503   0.000061   0.000002
              31         32         33         34         35         36
     1  C    0.000000   0.000000   0.000000   0.000000   0.000000  -0.000000
     2  H    0.000000   0.000000   0.000000   0.000000  -0.000000   0.000000
     3  O   -0.000000   0.000000  -0.000000  -0.000000   0.000000   0.000000
     4  H   -0.000000  -0.000000   0.000000   0.000000   0.000000  -0.000000
     5  C   -0.000121  -0.000565  -0.000013  -0.000005  -0.000000   0.000000
     6  H   -0.000006  -0.000068   0.000002   0.000000   0.000000   0.000000
     7  O   -0.000000   0.000003  -0.000000   0.000000   0.000000   0.000000
     8  C   -0.000000  -0.000005  -0.000001  -0.000001   0.000000   0.000000
     9  H    0.000000  -0.000000  -0.000000  -0.000000  -0.000000   0.000000
    10  O    0.000000   0.000000   0.000000   0.000000  -0.000000  -0.000000
    11  H    0.000000   0.000000   0.000000   0.000000  -0.000000  -0.000000
    12  C    0.000022   0.000093  -0.000028  -0.000007   0.000000  -0.000000
    13  H    0.000000  -0.000013  -0.000032  -0.000007   0.000000  -0.000000
    14  O   -0.000001  -0.000010  -0.000119  -0.000101   0.000000   0.000000
    15  H   -0.000008   0.000006   0.000159  -0.000018   0.000000  -0.000000
    16  C   -0.000922  -0.000180  -0.000158   0.000008   0.000000   0.000003
    17  H    0.000240  -0.000350   0.000025  -0.000016  -0.000000  -0.000002
    18  O   -0.002474   0.010368   0.003330  -0.000203  -0.000015  -0.000005
    19  C    0.000007   0.000758   0.000001   0.000000   0.000000   0.000000
    20  H    0.000221   0.001867   0.000035  -0.000000  -0.000000  -0.000002
    21  H    0.000029  -0.000084   0.000000   0.000001   0.000000   0.000000
    22  O    0.000000  -0.000011   0.000000  -0.000000  -0.000000  -0.000000
    23  H   -0.000000   0.000003   0.000000  -0.000000  -0.000000   0.000000
    24  C   -0.044185  -0.007495  -0.056091   0.000944   0.006688   0.001685
    25  H    0.009097  -0.001396  -0.005019   0.005123  -0.000089  -0.000077
    26  C    0.000248  -0.000001  -0.022228  -0.003582   0.003252  -0.000967
    27  H   -0.000178   0.000019  -0.014172   0.005145  -0.000136  -0.000063
    28  O    0.001949   0.000291  -0.009372   0.000832  -0.000086  -0.000043
    29  C    0.237959  -0.040142   0.221977  -0.051444  -0.041991  -0.011032
    30  H   -0.033702  -0.005078  -0.048196   0.010118   0.004517  -0.001477
    31  O    7.963552   0.325620  -0.045057   0.002449  -0.002153   0.014340
    32  H    0.325620   0.436240   0.009534  -0.000597  -0.000440  -0.000661
    33  C   -0.045057   0.009534   5.276727   0.380800   0.247507  -0.041217
    34  H    0.002449  -0.000597   0.380800   0.565719  -0.036402  -0.004815
    35  O   -0.002153  -0.000440   0.247507  -0.036402   7.965059   0.325550
    36  H    0.014340  -0.000661  -0.041217  -0.004815   0.325550   0.430886
    37  C    0.004320  -0.000578   0.213469  -0.049521  -0.049936   0.012464
    38  H   -0.000196  -0.000012  -0.055463   0.011399   0.003969  -0.000747
    39  O   -0.000015   0.000007  -0.030402   0.006189  -0.003491  -0.000474
    40  H   -0.000021   0.000005  -0.004361  -0.001556   0.015528  -0.000866
    41  C    0.000010  -0.000001   0.007238  -0.000739  -0.000063   0.000023
    42  H    0.000000  -0.000000  -0.000239   0.000032   0.000001   0.000001
    43  H    0.000001   0.000000  -0.000077  -0.000046  -0.000013  -0.000001
    44  O    0.000000   0.000000  -0.000207   0.000007   0.000000  -0.000000
    45  H   -0.000000   0.000000   0.000025  -0.000003  -0.000000   0.000000
              37         38         39         40         41         42
     1  C   -0.000000   0.000000   0.000000  -0.000000   0.000000  -0.000000
     2  H   -0.000000  -0.000000   0.000000  -0.000000   0.000000  -0.000000
     3  O    0.000000  -0.000000  -0.000000  -0.000000  -0.000000  -0.000000
     4  H    0.000000  -0.000000   0.000000   0.000000  -0.000000   0.000000
     5  C    0.000006  -0.000000  -0.000000  -0.000000  -0.000002   0.000000
     6  H   -0.000003  -0.000001   0.000000  -0.000000   0.000000  -0.000000
     7  O   -0.000000  -0.000000   0.000000  -0.000000   0.000000  -0.000000
     8  C    0.000004  -0.000000  -0.000000   0.000000  -0.000030   0.000001
     9  H   -0.000000  -0.000000  -0.000000  -0.000000   0.000002  -0.000000
    10  O   -0.000000   0.000000   0.000000  -0.000000   0.000000  -0.000000
    11  H   -0.000002   0.000000   0.000000  -0.000000   0.000019  -0.000000
    12  C    0.000286  -0.000007  -0.000000   0.000000  -0.000158   0.000039
    13  H    0.000078   0.000001  -0.000000   0.000000   0.000385   0.000042
    14  O    0.000248  -0.000000  -0.000000  -0.000000  -0.000222  -0.000060
    15  H    0.000509  -0.000015  -0.000039   0.000002  -0.006473  -0.000497
    16  C   -0.000226   0.000015   0.000000  -0.000000   0.000131  -0.000003
    17  H   -0.000053  -0.000003   0.000000  -0.000000   0.000007   0.000000
    18  O   -0.000512  -0.000072   0.000000   0.000000  -0.000169   0.000005
    19  C   -0.000000   0.000000  -0.000000   0.000000   0.000000  -0.000000
    20  H   -0.000006  -0.000001   0.000000   0.000000   0.000000  -0.000000
    21  H    0.000000   0.000000  -0.000000  -0.000000  -0.000000  -0.000000
    22  O   -0.000000   0.000000  -0.000000   0.000000  -0.000000  -0.000000
    23  H   -0.000000   0.000000  -0.000000   0.000000  -0.000000   0.000000
    24  C    0.003221   0.000498  -0.000346  -0.000326   0.003773  -0.000189
    25  H   -0.002997  -0.000044  -0.000116  -0.000019   0.001193   0.000095
    26  C    0.136153  -0.050124  -0.052080   0.012101   0.264535  -0.048434
    27  H   -0.053128   0.010326   0.009307  -0.000740  -0.031864  -0.004160
    28  O   -0.035205   0.003608   0.001440  -0.000254  -0.042028   0.003892
    29  C   -0.059519   0.001630   0.006524   0.001493  -0.001912   0.000016
    30  H   -0.001812   0.006001  -0.000001  -0.000060   0.000037   0.000015
    31  O    0.004320  -0.000196  -0.000015  -0.000021   0.000010   0.000000
    32  H   -0.000578  -0.000012   0.000007   0.000005  -0.000001  -0.000000
    33  C    0.213469  -0.055463  -0.030402  -0.004361   0.007238  -0.000239
    34  H   -0.049521   0.011399   0.006189  -0.001556  -0.000739   0.000032
    35  O   -0.049936   0.003969  -0.003491   0.015528  -0.000063   0.000001
    36  H    0.012464  -0.000747  -0.000474  -0.000866   0.000023   0.000001
    37  C    5.316884   0.386402   0.223161  -0.048141  -0.048462  -0.000814
    38  H    0.386402   0.571619  -0.034034  -0.004360  -0.011896   0.000640
    39  O    0.223161  -0.034034   7.965453   0.322662   0.003084   0.008944
    40  H   -0.048141  -0.004360   0.322662   0.434150  -0.000350  -0.000131
    41  C   -0.048462  -0.011896   0.003084  -0.000350   4.834057   0.408172
    42  H   -0.000814   0.000640   0.008944  -0.000131   0.408172   0.507983
    43  H   -0.001223   0.004620  -0.000280  -0.000119   0.422795  -0.027429
    44  O    0.004644  -0.000040   0.000018   0.000011   0.259246  -0.026074
    45  H   -0.000587  -0.000095   0.000006   0.000001  -0.038336   0.006967
              43         44         45
     1  C   -0.000000  -0.000000  -0.000003
     2  H   -0.000000  -0.000002  -0.000016
     3  O   -0.000000  -0.000000   0.000000
     4  H   -0.000000   0.000000  -0.000000
     5  C   -0.000000   0.000004  -0.000011
     6  H    0.000000  -0.000003  -0.000013
     7  O    0.000000  -0.000000   0.000000
     8  C   -0.000001  -0.000034  -0.000027
     9  H    0.000000  -0.000005  -0.000023
    10  O    0.000000  -0.000001   0.000023
    11  H    0.000000   0.000082   0.000072
    12  C   -0.000109   0.000249   0.002776
    13  H    0.000111   0.001318  -0.000420
    14  O   -0.000106  -0.008873   0.001318
    15  H    0.002326   0.048305  -0.008645
    16  C    0.000015   0.000039  -0.000041
    17  H    0.000001  -0.000007  -0.000025
    18  O    0.000002   0.000008  -0.000063
    19  C   -0.000000   0.000000   0.000000
    20  H   -0.000000   0.000000  -0.000000
    21  H   -0.000000  -0.000000   0.000000
    22  O    0.000000   0.000000   0.000000
    23  H    0.000000   0.000000  -0.000000
    24  C   -0.000775  -0.001205   0.000416
    25  H    0.000039  -0.000267   0.000100
    26  C   -0.068123  -0.055173  -0.000846
    27  H    0.008526   0.000703  -0.000860
    28  O    0.000266  -0.003533   0.007503
    29  C   -0.000077  -0.000039   0.000061
    30  H   -0.000005  -0.000002   0.000002
    31  O    0.000001   0.000000  -0.000000
    32  H    0.000000   0.000000   0.000000
    33  C   -0.000077  -0.000207   0.000025
    34  H   -0.000046   0.000007  -0.000003
    35  O   -0.000013   0.000000  -0.000000
    36  H   -0.000001  -0.000000   0.000000
    37  C   -0.001223   0.004644  -0.000587
    38  H    0.004620  -0.000040  -0.000095
    39  O   -0.000280   0.000018   0.000006
    40  H   -0.000119   0.000011   0.000001
    41  C    0.422795   0.259246  -0.038336
    42  H   -0.027429  -0.026074   0.006967
    43  H    0.564281  -0.031916  -0.015868
    44  O   -0.031916   7.925932   0.313878
    45  H   -0.015868   0.313878   0.457315
 Mulliken charges:
               1
     1  C    0.229334
     2  H    0.146844
     3  O   -0.371689
     4  H    0.251203
     5  C   -0.088177
     6  H    0.164104
     7  O   -0.402072
     8  C    0.008745
     9  H    0.137176
    10  O   -0.410702
    11  H    0.266144
    12  C   -0.076622
    13  H    0.158703
    14  O   -0.439006
    15  H    0.280711
    16  C    0.047179
    17  H    0.172199
    18  O   -0.402616
    19  C    0.007486
    20  H    0.136130
    21  H    0.122522
    22  O   -0.415224
    23  H    0.261479
    24  C    0.207939
    25  H    0.150620
    26  C   -0.110995
    27  H    0.176263
    28  O   -0.407643
    29  C    0.023923
    30  H    0.164215
    31  O   -0.431024
    32  H    0.272868
    33  C   -0.028376
    34  H    0.160297
    35  O   -0.437254
    36  H    0.277498
    37  C    0.050876
    38  H    0.156382
    39  O   -0.425516
    40  H    0.275351
    41  C   -0.022006
    42  H    0.171187
    43  H    0.143187
    44  O   -0.427065
    45  H    0.275421
 Sum of Mulliken charges =  -0.00000
 Mulliken charges with hydrogens summed into heavy atoms:
               1
     1  C    0.376178
     3  O   -0.120486
     5  C    0.075927
     7  O   -0.402072
     8  C    0.145920
    10  O   -0.144557
    12  C    0.082081
    14  O   -0.158295
    16  C    0.219378
    18  O   -0.402616
    19  C    0.266138
    22  O   -0.153745
    24  C    0.358560
    26  C    0.065268
    28  O   -0.407643
    29  C    0.188138
    31  O   -0.158155
    33  C    0.131921
    35  O   -0.159756
    37  C    0.207258
    39  O   -0.150165
    41  C    0.292368
    44  O   -0.151644
 Electronic spatial extent (au):  <R**2>=           8617.7535
 Charge=             -0.0000 electrons
 Dipole moment (field-independent basis, Debye):
    X=             -3.0099    Y=              0.6644    Z=              0.7649  Tot=              3.1759
 Quadrupole moment (field-independent basis, Debye-Ang):
   XX=           -149.1916   YY=           -147.3448   ZZ=           -132.5088
   XY=             -3.6013   XZ=              9.8304   YZ=              5.2207
 Traceless Quadrupole moment (field-independent basis, Debye-Ang):
   XX=             -6.1766   YY=             -4.3297   ZZ=             10.5063
   XY=             -3.6013   XZ=              9.8304   YZ=              5.2207
 Octapole moment (field-independent basis, Debye-Ang**2):
  XXX=            -71.4837  YYY=              8.4843  ZZZ=             -4.1373  XYY=            -47.6907
  XXY=             16.3595  XXZ=             45.6799  XZZ=              9.8311  YZZ=            -15.6984
  YYZ=             13.8147  XYZ=             -5.4145
 Hexadecapole moment (field-independent basis, Debye-Ang**3):
 XXXX=          -7496.8652 YYYY=          -2951.2651 ZZZZ=           -386.3431 XXXY=            -11.4288
 XXXZ=            184.2168 YYYX=           -177.2560 YYYZ=             25.3894 ZZZX=             23.5281
 ZZZY=             17.9630 XXYY=          -1868.9081 XXZZ=          -1208.1786 YYZZ=           -532.2795
 XXYZ=             34.2169 YYXZ=             68.5248 ZZXY=            -33.3758
 N-N= 2.330678015223D+03 E-N=-7.708764982942D+03  KE= 1.294090596729D+03
 No NMR shielding tensors so no spin-rotation constants.
 Leave Link  601 at Thu Mar 16 21:03:50 2023, MaxMem=   262144000 cpu:               1.8 elap:               0.3
 (Enter /dragofs/sw/campus/0.2/software/gaussian/16.gaussian/gaussian/g16_legacy/l9999.exe)
 1\1\GINC-DRAGO31050154\FOpt\RM062X\6-311G(d,p)\C12H22O11\JRAMOS\16-Mar
 -2023\0\\#p opt M062X/6-311g(d,p)\\Optimization 03-DIHEDRAL_PHI_PSI_14
 b/dimer14b_000_011.log\\0,1\C,-3.8588655123,-0.703759675,0.235231121\H
 ,-3.7402693778,-0.8776932025,1.3120523496\O,-5.1469465059,-1.065830896
 9,-0.0854196433\H,-5.2189912029,-1.1191537455,-1.0434564274\C,-2.44498
 39524,1.1893478551,0.4049245011\H,-2.3369273247,0.9895655099,1.4814919
 431\O,-3.6839876947,0.6776072394,-0.0513883201\C,-2.8004261894,-1.4588
 546181,-0.5539963023\H,-2.9641979493,-1.2242428135,-1.6194419407\O,-2.
 9324868564,-2.8337385078,-0.3130230074\H,-2.1922612369,-3.2527895217,-
 0.7659057255\C,-1.3883503273,-0.9949813904,-0.1928301533\H,-1.18947872
 6,-1.2641673533,0.8524113211\O,-0.524136135,-1.7007311487,-1.067789364
 5\H,0.2060732009,-2.0849885769,-0.5639403104\C,-1.2810113497,0.5256273
 476,-0.3302435122\H,-1.3125358054,0.7804705919,-1.3990756153\O,-0.1130
 824974,1.0969024039,0.2557546646\C,-2.5128645528,2.6902866913,0.186826
 0095\H,-1.6130829247,3.1591231479,0.5846947259\H,-2.5655408582,2.88121
 75592,-0.8948648676\O,-3.6150460873,3.2392132933,0.8636149046\H,-4.374
 2795185,2.6977584824,0.6218676859\C,1.0983419957,0.6110920637,-0.19957
 37338\H,1.0338271123,0.3533543358,-1.2680169123\C,2.6004369751,-1.1737
 952197,0.029322912\H,2.4734629145,-1.3550625292,-1.0494558249\O,1.4339
 499081,-0.5457330523,0.5439063027\C,2.1764681916,1.6571718416,0.035179
 9838\H,2.2135545089,1.8712760223,1.1112184759\O,1.9495256055,2.8276265
 625,-0.7184637266\H,1.1147259868,3.2058421076,-0.426508854\C,3.5090334
 361,1.0885947734,-0.4230029524\H,3.4541376913,0.9258164634,-1.51004584
 44\O,4.5869306926,1.9441815564,-0.1118785745\H,4.3899281605,2.80398483
 03,-0.4974212649\C,3.7905262529,-0.2490004881,0.2425394635\H,3.9144727
 037,-0.0761605849,1.3218164211\O,4.9312704101,-0.8627132282,-0.3077132
 907\H,5.6331034247,-0.2031135493,-0.3017195636\C,2.7126757202,-2.50842
 15532,0.7409435138\H,3.4712495485,-3.1211322552,0.2567743808\H,3.00405
 2037,-2.3498150218,1.7847599326\O,1.4718240921,-3.1975158306,0.6594219
 586\H,0.9100640159,-2.8460119162,1.355914161\\Version=EM64L-G16RevA.03
 \State=1-A\HF=-1297.8315077\RMSD=6.551e-09\RMSF=6.295e-06\Dipole=1.181
 6004,0.2660007,-0.3070568\Quadrupole=-4.5157695,-3.1691277,7.6848972,2
 .6163042,7.4072632,-3.9272584\PG=C01 [X(C12H22O11)]\\@


 "WOULD YOU TELL ME PLEASE, WHICH WAY I OUGHT TO WALK FROM HERE?"
 "THAT DEPENDS A GREAT DEAL ON WHERE YOU WANT TO GO," SAID THE CAT.
 "I DON'T MUCH CARE WHERE -- ", SAID ALICE.
 "THEN IT DOESN'T MATTER WHICH WAY YOU WALK," SAID THE CAT.

                                      -- LEWIS CARROLL
 Job cpu time:       0 days 13 hours  5 minutes 43.9 seconds.
 Elapsed time:       0 days  1 hours 38 minutes 46.6 seconds.
 File lengths (MBytes):  RWF=    189 Int=      0 D2E=      0 Chk=     24 Scr=      1
 Normal termination of Gaussian 16 at Thu Mar 16 21:03:50 2023.
