 Entering Gaussian System, Link 0=/dragofs/sw/campus/0.2/software/gaussian/16.gaussian/gaussian/g16_legacy/g16
 Input=dimer14b_000_007_opt.com
 Output=dimer14b_000_007_opt.log
 Initial command:
 /dragofs/sw/campus/0.2/software/gaussian/16.gaussian/gaussian/g16_legacy/l1.exe "/tmp/jramos/82085/Gau-2902439.inp" -scrdir="/tmp/jramos/82085/"
 Entering Link 1 = /dragofs/sw/campus/0.2/software/gaussian/16.gaussian/gaussian/g16_legacy/l1.exe PID=   2902440.
  
 Copyright (c) 1988,1990,1992,1993,1995,1998,2003,2009,2016,
            Gaussian, Inc.  All Rights Reserved.
  
 This is part of the Gaussian(R) 16 program.  It is based on
 the Gaussian(R) 09 system (copyright 2009, Gaussian, Inc.),
 the Gaussian(R) 03 system (copyright 2003, Gaussian, Inc.),
 the Gaussian(R) 98 system (copyright 1998, Gaussian, Inc.),
 the Gaussian(R) 94 system (copyright 1995, Gaussian, Inc.),
 the Gaussian 92(TM) system (copyright 1992, Gaussian, Inc.),
 the Gaussian 90(TM) system (copyright 1990, Gaussian, Inc.),
 the Gaussian 88(TM) system (copyright 1988, Gaussian, Inc.),
 the Gaussian 86(TM) system (copyright 1986, Carnegie Mellon
 University), and the Gaussian 82(TM) system (copyright 1983,
 Carnegie Mellon University). Gaussian is a federally registered
 trademark of Gaussian, Inc.
  
 This software contains proprietary and confidential information,
 including trade secrets, belonging to Gaussian, Inc.
  
 This software is provided under written license and may be
 used, copied, transmitted, or stored only in accord with that
 written license.
  
 The following legend is applicable only to US Government
 contracts under FAR:
  
                    RESTRICTED RIGHTS LEGEND
  
 Use, reproduction and disclosure by the US Government is
 subject to restrictions as set forth in subparagraphs (a)
 and (c) of the Commercial Computer Software - Restricted
 Rights clause in FAR 52.227-19.
  
 Gaussian, Inc.
 340 Quinnipiac St., Bldg. 40, Wallingford CT 06492
  
  
 ---------------------------------------------------------------
 Warning -- This program may not be used in any manner that
 competes with the business of Gaussian, Inc. or will provide
 assistance to any competitor of Gaussian, Inc.  The licensee
 of this program is prohibited from giving any competitor of
 Gaussian, Inc. access to this program.  By using this program,
 the user acknowledges that Gaussian, Inc. is engaged in the
 business of creating and licensing software in the field of
 computational chemistry and represents and warrants to the
 licensee that it is not a competitor of Gaussian, Inc. and that
 it will not use this program in any manner prohibited above.
 ---------------------------------------------------------------
  

 Cite this work as:
 Gaussian 16, Revision A.03,
 M. J. Frisch, G. W. Trucks, H. B. Schlegel, G. E. Scuseria, 
 M. A. Robb, J. R. Cheeseman, G. Scalmani, V. Barone, 
 G. A. Petersson, H. Nakatsuji, X. Li, M. Caricato, A. V. Marenich, 
 J. Bloino, B. G. Janesko, R. Gomperts, B. Mennucci, H. P. Hratchian, 
 J. V. Ortiz, A. F. Izmaylov, J. L. Sonnenberg, D. Williams-Young, 
 F. Ding, F. Lipparini, F. Egidi, J. Goings, B. Peng, A. Petrone, 
 T. Henderson, D. Ranasinghe, V. G. Zakrzewski, J. Gao, N. Rega, 
 G. Zheng, W. Liang, M. Hada, M. Ehara, K. Toyota, R. Fukuda, 
 J. Hasegawa, M. Ishida, T. Nakajima, Y. Honda, O. Kitao, H. Nakai, 
 T. Vreven, K. Throssell, J. A. Montgomery, Jr., J. E. Peralta, 
 F. Ogliaro, M. J. Bearpark, J. J. Heyd, E. N. Brothers, K. N. Kudin, 
 V. N. Staroverov, T. A. Keith, R. Kobayashi, J. Normand, 
 K. Raghavachari, A. P. Rendell, J. C. Burant, S. S. Iyengar, 
 J. Tomasi, M. Cossi, J. M. Millam, M. Klene, C. Adamo, R. Cammi, 
 J. W. Ochterski, R. L. Martin, K. Morokuma, O. Farkas, 
 J. B. Foresman, and D. J. Fox, Gaussian, Inc., Wallingford CT, 2016.
 
 ******************************************
 Gaussian 16:  EM64L-G16RevA.03 25-Dec-2016
                16-Mar-2023 
 ******************************************
 %chk=dimer14b_000_007_opt.chk
 %mem=2000MB
 %nproc=8
 Will use up to    8 processors via shared memory.
 ------------------------
 #p opt M062X/6-311g(d,p)
 ------------------------
 1/18=20,19=15,26=3,38=1/1,3;
 2/9=110,12=2,17=6,18=5,40=1/2;
 3/5=4,6=6,7=101,11=2,25=1,30=1,71=1,74=-55/1,2,3;
 4//1;
 5/5=2,38=5/2;
 6/7=2,8=2,9=2,10=2,28=1/1;
 7//1,2,3,16;
 1/18=20,19=15,26=3/3(2);
 2/9=110/2;
 99//99;
 2/9=110/2;
 3/5=4,6=6,7=101,11=2,25=1,30=1,71=1,74=-55/1,2,3;
 4/5=5,16=3,69=1/1;
 5/5=2,38=5/2;
 7//1,2,3,16;
 1/18=20,19=15,26=3/3(-5);
 2/9=110/2;
 6/7=2,8=2,9=2,10=2,19=2,28=1/1;
 99/9=1/99;
 Leave Link    1 at Thu Mar 16 18:53:55 2023, MaxMem=   262144000 cpu:               0.2 elap:               0.0
 (Enter /dragofs/sw/campus/0.2/software/gaussian/16.gaussian/gaussian/g16_legacy/l101.exe)
 ---------------------------------------------------------
 Optimization 03-DIHEDRAL_PHI_PSI_14b/dimer14b_000_007.log
 ---------------------------------------------------------
 Symbolic Z-matrix:
 Charge =  0 Multiplicity = 1
 C                     3.55078   0.28881  -0.51434 
 H                     3.09895   0.89265  -1.3105 
 O                     4.91152   0.48414  -0.59366 
 H                     5.3371   -0.11064   0.03185 
 C                     1.68328   0.63541   0.8722 
 H                     1.22998   1.04663  -0.03608 
 O                     3.09595   0.73751   0.75592 
 C                     3.14887  -1.17666  -0.68436 
 H                     3.69545  -1.76331   0.07298 
 O                     3.48572  -1.58451  -1.98288 
 H                     3.10942  -2.46282  -2.10281 
 C                     1.65721  -1.38443  -0.43244 
 H                     1.10654  -0.82568  -1.20094 
 O                     1.43743  -2.77767  -0.57948 
 H                     0.53972  -2.98638  -0.30538 
 C                     1.29998  -0.85546   0.9504 
 H                     1.87827  -1.36501   1.72292 
 O                    -0.07063  -1.04632   1.31812 
 C                     1.22746   1.52598   2.00296 
 H                     0.19305   1.30163   2.2534 
 H                     1.86041   1.37369   2.8844 
 O                     1.26074   2.87989   1.5729 
 H                     2.17051   3.06999   1.31955 
 C                    -1.03081  -0.80183   0.34611 
 H                    -0.83531  -1.36693  -0.58149 
 C                    -1.90706   1.04331  -0.90292 
 H                    -1.67224   0.58881  -1.87633 
 O                    -0.99371   0.57597   0.07772 
 C                    -2.39286  -1.20677   0.87209 
 H                    -2.58848  -0.66525   1.80581 
 O                    -2.47609  -2.60568   1.05376 
 H                    -1.90727  -2.83767   1.79378 
 C                    -3.42216  -0.81901  -0.17454 
 H                    -3.21541  -1.38772  -1.094 
 O                    -4.73983  -1.06493   0.26587 
 H                    -4.7929   -1.99474   0.50882 
 C                    -3.32884   0.66562  -0.49477 
 H                    -3.59097   1.21875   0.41994 
 O                    -4.19014   1.00697  -1.55373 
 H                    -5.05931   0.65825  -1.32932 
 C                    -1.70038   2.55384  -0.96001 
 H                    -2.24986   2.95095  -1.81439 
 H                    -2.12279   2.99171  -0.04693 
 O                    -0.34177   2.89029  -1.1055 
 H                     0.06877   2.89502  -0.22976 
 
 ITRead=  0  0  0  0  0  0  0  0  0  0  0  0  0  0  0  0  0  0  0  0
 ITRead=  0  0  0  0  0  0  0  0  0  0  0  0  0  0  0  0  0  0  0  0
 ITRead=  0  0  0  0  0
 MicOpt= -1 -1 -1 -1 -1 -1 -1 -1 -1 -1 -1 -1 -1 -1 -1 -1 -1 -1 -1 -1
 MicOpt= -1 -1 -1 -1 -1 -1 -1 -1 -1 -1 -1 -1 -1 -1 -1 -1 -1 -1 -1 -1
 MicOpt= -1 -1 -1 -1 -1
 NAtoms=     45 NQM=       45 NQMF=       0 NMMI=      0 NMMIF=      0
                NMic=       0 NMicF=      0.
                    Isotopes and Nuclear Properties:
 (Nuclear quadrupole moments (NQMom) in fm**2, nuclear magnetic moments (NMagM)
  in nuclear magnetons)

  Atom         1           2           3           4           5           6           7           8           9          10
 IAtWgt=          12           1          16           1          12           1          16          12           1          16
 AtmWgt=  12.0000000   1.0078250  15.9949146   1.0078250  12.0000000   1.0078250  15.9949146  12.0000000   1.0078250  15.9949146
 NucSpn=           0           1           0           1           0           1           0           0           1           0
 AtZEff=  -0.0000000  -0.0000000  -0.0000000  -0.0000000  -0.0000000  -0.0000000  -0.0000000  -0.0000000  -0.0000000  -0.0000000
 NQMom=    0.0000000   0.0000000   0.0000000   0.0000000   0.0000000   0.0000000   0.0000000   0.0000000   0.0000000   0.0000000
 NMagM=    0.0000000   2.7928460   0.0000000   2.7928460   0.0000000   2.7928460   0.0000000   0.0000000   2.7928460   0.0000000
 AtZNuc=   6.0000000   1.0000000   8.0000000   1.0000000   6.0000000   1.0000000   8.0000000   6.0000000   1.0000000   8.0000000

  Atom        11          12          13          14          15          16          17          18          19          20
 IAtWgt=           1          12           1          16           1          12           1          16          12           1
 AtmWgt=   1.0078250  12.0000000   1.0078250  15.9949146   1.0078250  12.0000000   1.0078250  15.9949146  12.0000000   1.0078250
 NucSpn=           1           0           1           0           1           0           1           0           0           1
 AtZEff=  -0.0000000  -0.0000000  -0.0000000  -0.0000000  -0.0000000  -0.0000000  -0.0000000  -0.0000000  -0.0000000  -0.0000000
 NQMom=    0.0000000   0.0000000   0.0000000   0.0000000   0.0000000   0.0000000   0.0000000   0.0000000   0.0000000   0.0000000
 NMagM=    2.7928460   0.0000000   2.7928460   0.0000000   2.7928460   0.0000000   2.7928460   0.0000000   0.0000000   2.7928460
 AtZNuc=   1.0000000   6.0000000   1.0000000   8.0000000   1.0000000   6.0000000   1.0000000   8.0000000   6.0000000   1.0000000

  Atom        21          22          23          24          25          26          27          28          29          30
 IAtWgt=           1          16           1          12           1          12           1          16          12           1
 AtmWgt=   1.0078250  15.9949146   1.0078250  12.0000000   1.0078250  12.0000000   1.0078250  15.9949146  12.0000000   1.0078250
 NucSpn=           1           0           1           0           1           0           1           0           0           1
 AtZEff=  -0.0000000  -0.0000000  -0.0000000  -0.0000000  -0.0000000  -0.0000000  -0.0000000  -0.0000000  -0.0000000  -0.0000000
 NQMom=    0.0000000   0.0000000   0.0000000   0.0000000   0.0000000   0.0000000   0.0000000   0.0000000   0.0000000   0.0000000
 NMagM=    2.7928460   0.0000000   2.7928460   0.0000000   2.7928460   0.0000000   2.7928460   0.0000000   0.0000000   2.7928460
 AtZNuc=   1.0000000   8.0000000   1.0000000   6.0000000   1.0000000   6.0000000   1.0000000   8.0000000   6.0000000   1.0000000

  Atom        31          32          33          34          35          36          37          38          39          40
 IAtWgt=          16           1          12           1          16           1          12           1          16           1
 AtmWgt=  15.9949146   1.0078250  12.0000000   1.0078250  15.9949146   1.0078250  12.0000000   1.0078250  15.9949146   1.0078250
 NucSpn=           0           1           0           1           0           1           0           1           0           1
 AtZEff=  -0.0000000  -0.0000000  -0.0000000  -0.0000000  -0.0000000  -0.0000000  -0.0000000  -0.0000000  -0.0000000  -0.0000000
 NQMom=    0.0000000   0.0000000   0.0000000   0.0000000   0.0000000   0.0000000   0.0000000   0.0000000   0.0000000   0.0000000
 NMagM=    0.0000000   2.7928460   0.0000000   2.7928460   0.0000000   2.7928460   0.0000000   2.7928460   0.0000000   2.7928460
 AtZNuc=   8.0000000   1.0000000   6.0000000   1.0000000   8.0000000   1.0000000   6.0000000   1.0000000   8.0000000   1.0000000

  Atom        41          42          43          44          45
 IAtWgt=          12           1           1          16           1
 AtmWgt=  12.0000000   1.0078250   1.0078250  15.9949146   1.0078250
 NucSpn=           0           1           1           0           1
 AtZEff=  -0.0000000  -0.0000000  -0.0000000  -0.0000000  -0.0000000
 NQMom=    0.0000000   0.0000000   0.0000000   0.0000000   0.0000000
 NMagM=    0.0000000   2.7928460   2.7928460   0.0000000   2.7928460
 AtZNuc=   6.0000000   1.0000000   1.0000000   8.0000000   1.0000000
 Leave Link  101 at Thu Mar 16 18:53:56 2023, MaxMem=   262144000 cpu:               1.0 elap:               0.1
 (Enter /dragofs/sw/campus/0.2/software/gaussian/16.gaussian/gaussian/g16_legacy/l103.exe)

 GradGradGradGradGradGradGradGradGradGradGradGradGradGradGradGradGradGrad
 Berny optimization.
 Initialization pass.
                           ----------------------------
                           !    Initial Parameters    !
                           ! (Angstroms and Degrees)  !
 --------------------------                            --------------------------
 ! Name  Definition              Value          Derivative Info.                !
 --------------------------------------------------------------------------------
 ! R1    R(1,2)                  1.0967         estimate D2E/DX2                !
 ! R2    R(1,3)                  1.377          estimate D2E/DX2                !
 ! R3    R(1,7)                  1.4219         estimate D2E/DX2                !
 ! R4    R(1,8)                  1.5291         estimate D2E/DX2                !
 ! R5    R(3,4)                  0.9624         estimate D2E/DX2                !
 ! R6    R(5,6)                  1.0952         estimate D2E/DX2                !
 ! R7    R(5,7)                  1.4211         estimate D2E/DX2                !
 ! R8    R(5,16)                 1.5413         estimate D2E/DX2                !
 ! R9    R(5,19)                 1.5098         estimate D2E/DX2                !
 ! R10   R(8,9)                  1.1029         estimate D2E/DX2                !
 ! R11   R(8,10)                 1.4021         estimate D2E/DX2                !
 ! R12   R(8,12)                 1.527          estimate D2E/DX2                !
 ! R13   R(10,11)                0.963          estimate D2E/DX2                !
 ! R14   R(12,13)                1.0982         estimate D2E/DX2                !
 ! R15   R(12,14)                1.4181         estimate D2E/DX2                !
 ! R16   R(12,16)                1.523          estimate D2E/DX2                !
 ! R17   R(14,15)                0.9615         estimate D2E/DX2                !
 ! R18   R(16,17)                1.0913         estimate D2E/DX2                !
 ! R19   R(16,18)                1.4319         estimate D2E/DX2                !
 ! R20   R(18,24)                1.388          estimate D2E/DX2                !
 ! R21   R(19,20)                1.0877         estimate D2E/DX2                !
 ! R22   R(19,21)                1.0958         estimate D2E/DX2                !
 ! R23   R(19,22)                1.421          estimate D2E/DX2                !
 ! R24   R(22,23)                0.9633         estimate D2E/DX2                !
 ! R25   R(24,25)                1.1036         estimate D2E/DX2                !
 ! R26   R(24,28)                1.4042         estimate D2E/DX2                !
 ! R27   R(24,29)                1.5152         estimate D2E/DX2                !
 ! R28   R(26,27)                1.0996         estimate D2E/DX2                !
 ! R29   R(26,28)                1.4193         estimate D2E/DX2                !
 ! R30   R(26,37)                1.5267         estimate D2E/DX2                !
 ! R31   R(26,41)                1.5257         estimate D2E/DX2                !
 ! R32   R(29,30)                1.097          estimate D2E/DX2                !
 ! R33   R(29,31)                1.4131         estimate D2E/DX2                !
 ! R34   R(29,33)                1.5183         estimate D2E/DX2                !
 ! R35   R(31,32)                0.9618         estimate D2E/DX2                !
 ! R36   R(33,34)                1.1007         estimate D2E/DX2                !
 ! R37   R(33,35)                1.4109         estimate D2E/DX2                !
 ! R38   R(33,37)                1.5216         estimate D2E/DX2                !
 ! R39   R(35,36)                0.9625         estimate D2E/DX2                !
 ! R40   R(37,38)                1.1006         estimate D2E/DX2                !
 ! R41   R(37,39)                1.407          estimate D2E/DX2                !
 ! R42   R(39,40)                0.963          estimate D2E/DX2                !
 ! R43   R(41,42)                1.0907         estimate D2E/DX2                !
 ! R44   R(41,43)                1.0972         estimate D2E/DX2                !
 ! R45   R(41,44)                1.4072         estimate D2E/DX2                !
 ! R46   R(44,45)                0.9672         estimate D2E/DX2                !
 ! A1    A(2,1,3)              106.6922         estimate D2E/DX2                !
 ! A2    A(2,1,7)              110.0609         estimate D2E/DX2                !
 ! A3    A(2,1,8)              109.7972         estimate D2E/DX2                !
 ! A4    A(3,1,7)              108.8327         estimate D2E/DX2                !
 ! A5    A(3,1,8)              112.9107         estimate D2E/DX2                !
 ! A6    A(7,1,8)              108.524          estimate D2E/DX2                !
 ! A7    A(1,3,4)              108.1736         estimate D2E/DX2                !
 ! A8    A(6,5,7)              108.4569         estimate D2E/DX2                !
 ! A9    A(6,5,16)             107.5972         estimate D2E/DX2                !
 ! A10   A(6,5,19)             105.9426         estimate D2E/DX2                !
 ! A11   A(7,5,16)             108.7138         estimate D2E/DX2                !
 ! A12   A(7,5,19)             108.6031         estimate D2E/DX2                !
 ! A13   A(16,5,19)            117.2239         estimate D2E/DX2                !
 ! A14   A(1,7,5)              111.6171         estimate D2E/DX2                !
 ! A15   A(1,8,9)              107.6475         estimate D2E/DX2                !
 ! A16   A(1,8,10)             108.5791         estimate D2E/DX2                !
 ! A17   A(1,8,12)             111.6435         estimate D2E/DX2                !
 ! A18   A(9,8,10)             111.2321         estimate D2E/DX2                !
 ! A19   A(9,8,12)             107.3639         estimate D2E/DX2                !
 ! A20   A(10,8,12)            110.3589         estimate D2E/DX2                !
 ! A21   A(8,10,11)            106.663          estimate D2E/DX2                !
 ! A22   A(8,12,13)            107.7668         estimate D2E/DX2                !
 ! A23   A(8,12,14)            105.5433         estimate D2E/DX2                !
 ! A24   A(8,12,16)            109.3694         estimate D2E/DX2                !
 ! A25   A(13,12,14)           110.4628         estimate D2E/DX2                !
 ! A26   A(13,12,16)           109.9407         estimate D2E/DX2                !
 ! A27   A(14,12,16)           113.5166         estimate D2E/DX2                !
 ! A28   A(12,14,15)           109.1705         estimate D2E/DX2                !
 ! A29   A(5,16,12)            103.3883         estimate D2E/DX2                !
 ! A30   A(5,16,17)            110.8415         estimate D2E/DX2                !
 ! A31   A(5,16,18)            112.334          estimate D2E/DX2                !
 ! A32   A(12,16,17)           110.872          estimate D2E/DX2                !
 ! A33   A(12,16,18)           114.2921         estimate D2E/DX2                !
 ! A34   A(17,16,18)           105.2608         estimate D2E/DX2                !
 ! A35   A(16,18,24)           117.3132         estimate D2E/DX2                !
 ! A36   A(5,19,20)            109.7485         estimate D2E/DX2                !
 ! A37   A(5,19,21)            110.2476         estimate D2E/DX2                !
 ! A38   A(5,19,22)            109.1646         estimate D2E/DX2                !
 ! A39   A(20,19,21)           109.5998         estimate D2E/DX2                !
 ! A40   A(20,19,22)           106.7677         estimate D2E/DX2                !
 ! A41   A(21,19,22)           111.2446         estimate D2E/DX2                !
 ! A42   A(19,22,23)           106.8418         estimate D2E/DX2                !
 ! A43   A(18,24,25)           112.078          estimate D2E/DX2                !
 ! A44   A(18,24,28)           106.7628         estimate D2E/DX2                !
 ! A45   A(18,24,29)           109.3707         estimate D2E/DX2                !
 ! A46   A(25,24,28)           109.6993         estimate D2E/DX2                !
 ! A47   A(25,24,29)           108.3104         estimate D2E/DX2                !
 ! A48   A(28,24,29)           110.6299         estimate D2E/DX2                !
 ! A49   A(27,26,28)           109.7615         estimate D2E/DX2                !
 ! A50   A(27,26,37)           109.468          estimate D2E/DX2                !
 ! A51   A(27,26,41)           110.3135         estimate D2E/DX2                !
 ! A52   A(28,26,37)           109.46           estimate D2E/DX2                !
 ! A53   A(28,26,41)           105.3486         estimate D2E/DX2                !
 ! A54   A(37,26,41)           112.4022         estimate D2E/DX2                !
 ! A55   A(24,28,26)           115.9866         estimate D2E/DX2                !
 ! A56   A(24,29,30)           108.8961         estimate D2E/DX2                !
 ! A57   A(24,29,31)           111.2317         estimate D2E/DX2                !
 ! A58   A(24,29,33)           107.5694         estimate D2E/DX2                !
 ! A59   A(30,29,31)           111.6393         estimate D2E/DX2                !
 ! A60   A(30,29,33)           109.8635         estimate D2E/DX2                !
 ! A61   A(31,29,33)           107.5486         estimate D2E/DX2                !
 ! A62   A(29,31,32)           107.6301         estimate D2E/DX2                !
 ! A63   A(29,33,34)           108.4534         estimate D2E/DX2                !
 ! A64   A(29,33,35)           111.9278         estimate D2E/DX2                !
 ! A65   A(29,33,37)           110.651          estimate D2E/DX2                !
 ! A66   A(34,33,35)           110.2496         estimate D2E/DX2                !
 ! A67   A(34,33,37)           108.4684         estimate D2E/DX2                !
 ! A68   A(35,33,37)           107.0393         estimate D2E/DX2                !
 ! A69   A(33,35,36)           107.3776         estimate D2E/DX2                !
 ! A70   A(26,37,33)           110.7785         estimate D2E/DX2                !
 ! A71   A(26,37,38)           108.6428         estimate D2E/DX2                !
 ! A72   A(26,37,39)           107.9903         estimate D2E/DX2                !
 ! A73   A(33,37,38)           107.5072         estimate D2E/DX2                !
 ! A74   A(33,37,39)           110.9499         estimate D2E/DX2                !
 ! A75   A(38,37,39)           110.9637         estimate D2E/DX2                !
 ! A76   A(37,39,40)           106.813          estimate D2E/DX2                !
 ! A77   A(26,41,42)           108.7563         estimate D2E/DX2                !
 ! A78   A(26,41,43)           108.1689         estimate D2E/DX2                !
 ! A79   A(26,41,44)           111.8011         estimate D2E/DX2                !
 ! A80   A(42,41,43)           108.2175         estimate D2E/DX2                !
 ! A81   A(42,41,44)           108.5638         estimate D2E/DX2                !
 ! A82   A(43,41,44)           111.2426         estimate D2E/DX2                !
 ! A83   A(41,44,45)           108.5035         estimate D2E/DX2                !
 ! D1    D(2,1,3,4)           -173.8226         estimate D2E/DX2                !
 ! D2    D(7,1,3,4)             67.4503         estimate D2E/DX2                !
 ! D3    D(8,1,3,4)            -53.1182         estimate D2E/DX2                !
 ! D4    D(2,1,7,5)             59.9741         estimate D2E/DX2                !
 ! D5    D(3,1,7,5)            176.5656         estimate D2E/DX2                !
 ! D6    D(8,1,7,5)            -60.1998         estimate D2E/DX2                !
 ! D7    D(2,1,8,9)            174.7683         estimate D2E/DX2                !
 ! D8    D(2,1,8,10)            54.247          estimate D2E/DX2                !
 ! D9    D(2,1,8,12)           -67.64           estimate D2E/DX2                !
 ! D10   D(3,1,8,9)             55.8507         estimate D2E/DX2                !
 ! D11   D(3,1,8,10)           -64.6706         estimate D2E/DX2                !
 ! D12   D(3,1,8,12)           173.4424         estimate D2E/DX2                !
 ! D13   D(7,1,8,9)            -64.8939         estimate D2E/DX2                !
 ! D14   D(7,1,8,10)           174.5848         estimate D2E/DX2                !
 ! D15   D(7,1,8,12)            52.6978         estimate D2E/DX2                !
 ! D16   D(6,5,7,1)            -46.5365         estimate D2E/DX2                !
 ! D17   D(16,5,7,1)            70.1796         estimate D2E/DX2                !
 ! D18   D(19,5,7,1)          -161.237          estimate D2E/DX2                !
 ! D19   D(6,5,16,12)           50.0468         estimate D2E/DX2                !
 ! D20   D(6,5,16,17)          168.8948         estimate D2E/DX2                !
 ! D21   D(6,5,16,18)          -73.6612         estimate D2E/DX2                !
 ! D22   D(7,5,16,12)          -67.2186         estimate D2E/DX2                !
 ! D23   D(7,5,16,17)           51.6295         estimate D2E/DX2                !
 ! D24   D(7,5,16,18)          169.0734         estimate D2E/DX2                !
 ! D25   D(19,5,16,12)         169.205          estimate D2E/DX2                !
 ! D26   D(19,5,16,17)         -71.9469         estimate D2E/DX2                !
 ! D27   D(19,5,16,18)          45.497          estimate D2E/DX2                !
 ! D28   D(6,5,19,20)           76.0593         estimate D2E/DX2                !
 ! D29   D(6,5,19,21)         -163.1227         estimate D2E/DX2                !
 ! D30   D(6,5,19,22)          -40.6379         estimate D2E/DX2                !
 ! D31   D(7,5,19,20)         -167.6095         estimate D2E/DX2                !
 ! D32   D(7,5,19,21)          -46.7915         estimate D2E/DX2                !
 ! D33   D(7,5,19,22)           75.6933         estimate D2E/DX2                !
 ! D34   D(16,5,19,20)         -43.9769         estimate D2E/DX2                !
 ! D35   D(16,5,19,21)          76.8412         estimate D2E/DX2                !
 ! D36   D(16,5,19,22)        -160.6741         estimate D2E/DX2                !
 ! D37   D(1,8,10,11)         -172.0239         estimate D2E/DX2                !
 ! D38   D(9,8,10,11)           69.7007         estimate D2E/DX2                !
 ! D39   D(12,8,10,11)         -49.3561         estimate D2E/DX2                !
 ! D40   D(1,8,12,13)           63.8176         estimate D2E/DX2                !
 ! D41   D(1,8,12,14)         -178.1373         estimate D2E/DX2                !
 ! D42   D(1,8,12,16)          -55.6718         estimate D2E/DX2                !
 ! D43   D(9,8,12,13)         -178.4202         estimate D2E/DX2                !
 ! D44   D(9,8,12,14)          -60.375          estimate D2E/DX2                !
 ! D45   D(9,8,12,16)           62.0904         estimate D2E/DX2                !
 ! D46   D(10,8,12,13)         -57.0375         estimate D2E/DX2                !
 ! D47   D(10,8,12,14)          61.0077         estimate D2E/DX2                !
 ! D48   D(10,8,12,16)        -176.5268         estimate D2E/DX2                !
 ! D49   D(8,12,14,15)         171.7486         estimate D2E/DX2                !
 ! D50   D(13,12,14,15)        -72.0297         estimate D2E/DX2                !
 ! D51   D(16,12,14,15)         51.9824         estimate D2E/DX2                !
 ! D52   D(8,12,16,5)           59.9408         estimate D2E/DX2                !
 ! D53   D(8,12,16,17)         -58.8861         estimate D2E/DX2                !
 ! D54   D(8,12,16,18)        -177.6476         estimate D2E/DX2                !
 ! D55   D(13,12,16,5)         -58.199          estimate D2E/DX2                !
 ! D56   D(13,12,16,17)       -177.0259         estimate D2E/DX2                !
 ! D57   D(13,12,16,18)         64.2126         estimate D2E/DX2                !
 ! D58   D(14,12,16,5)         177.5058         estimate D2E/DX2                !
 ! D59   D(14,12,16,17)         58.6788         estimate D2E/DX2                !
 ! D60   D(14,12,16,18)        -60.0827         estimate D2E/DX2                !
 ! D61   D(5,16,18,24)          75.3219         estimate D2E/DX2                !
 ! D62   D(12,16,18,24)        -42.0698         estimate D2E/DX2                !
 ! D63   D(17,16,18,24)       -163.962          estimate D2E/DX2                !
 ! D64   D(16,18,24,25)         53.5106         estimate D2E/DX2                !
 ! D65   D(16,18,24,28)        -66.6267         estimate D2E/DX2                !
 ! D66   D(16,18,24,29)        173.6412         estimate D2E/DX2                !
 ! D67   D(5,19,22,23)         -59.3561         estimate D2E/DX2                !
 ! D68   D(20,19,22,23)       -177.9317         estimate D2E/DX2                !
 ! D69   D(21,19,22,23)         62.5287         estimate D2E/DX2                !
 ! D70   D(18,24,28,26)        179.8639         estimate D2E/DX2                !
 ! D71   D(25,24,28,26)         58.2094         estimate D2E/DX2                !
 ! D72   D(29,24,28,26)        -61.22           estimate D2E/DX2                !
 ! D73   D(18,24,29,30)         56.4581         estimate D2E/DX2                !
 ! D74   D(18,24,29,31)        -66.9871         estimate D2E/DX2                !
 ! D75   D(18,24,29,33)        175.4764         estimate D2E/DX2                !
 ! D76   D(25,24,29,30)        178.8709         estimate D2E/DX2                !
 ! D77   D(25,24,29,31)         55.4258         estimate D2E/DX2                !
 ! D78   D(25,24,29,33)        -62.1107         estimate D2E/DX2                !
 ! D79   D(28,24,29,30)        -60.866          estimate D2E/DX2                !
 ! D80   D(28,24,29,31)        175.6888         estimate D2E/DX2                !
 ! D81   D(28,24,29,33)         58.1523         estimate D2E/DX2                !
 ! D82   D(27,26,28,24)        -63.3948         estimate D2E/DX2                !
 ! D83   D(37,26,28,24)         56.7728         estimate D2E/DX2                !
 ! D84   D(41,26,28,24)        177.8457         estimate D2E/DX2                !
 ! D85   D(27,26,37,33)         68.5678         estimate D2E/DX2                !
 ! D86   D(27,26,37,38)       -173.5549         estimate D2E/DX2                !
 ! D87   D(27,26,37,39)        -53.1205         estimate D2E/DX2                !
 ! D88   D(28,26,37,33)        -51.7791         estimate D2E/DX2                !
 ! D89   D(28,26,37,38)         66.0982         estimate D2E/DX2                !
 ! D90   D(28,26,37,39)       -173.4674         estimate D2E/DX2                !
 ! D91   D(41,26,37,33)       -168.4774         estimate D2E/DX2                !
 ! D92   D(41,26,37,38)        -50.6001         estimate D2E/DX2                !
 ! D93   D(41,26,37,39)         69.8343         estimate D2E/DX2                !
 ! D94   D(27,26,41,42)         51.979          estimate D2E/DX2                !
 ! D95   D(27,26,41,43)        169.2968         estimate D2E/DX2                !
 ! D96   D(27,26,41,44)        -67.885          estimate D2E/DX2                !
 ! D97   D(28,26,41,42)        170.3689         estimate D2E/DX2                !
 ! D98   D(28,26,41,43)        -72.3133         estimate D2E/DX2                !
 ! D99   D(28,26,41,44)         50.5049         estimate D2E/DX2                !
 ! D100  D(37,26,41,42)        -70.4996         estimate D2E/DX2                !
 ! D101  D(37,26,41,43)         46.8182         estimate D2E/DX2                !
 ! D102  D(37,26,41,44)        169.6364         estimate D2E/DX2                !
 ! D103  D(24,29,31,32)         69.592          estimate D2E/DX2                !
 ! D104  D(30,29,31,32)        -52.2723         estimate D2E/DX2                !
 ! D105  D(33,29,31,32)       -172.8589         estimate D2E/DX2                !
 ! D106  D(24,29,33,34)         62.5912         estimate D2E/DX2                !
 ! D107  D(24,29,33,35)       -175.5614         estimate D2E/DX2                !
 ! D108  D(24,29,33,37)        -56.2673         estimate D2E/DX2                !
 ! D109  D(30,29,33,34)       -179.0117         estimate D2E/DX2                !
 ! D110  D(30,29,33,35)        -57.1644         estimate D2E/DX2                !
 ! D111  D(30,29,33,37)         62.1297         estimate D2E/DX2                !
 ! D112  D(31,29,33,34)        -57.3115         estimate D2E/DX2                !
 ! D113  D(31,29,33,35)         64.5358         estimate D2E/DX2                !
 ! D114  D(31,29,33,37)       -176.1701         estimate D2E/DX2                !
 ! D115  D(29,33,35,36)        -56.0149         estimate D2E/DX2                !
 ! D116  D(34,33,35,36)         64.796          estimate D2E/DX2                !
 ! D117  D(37,33,35,36)       -177.415          estimate D2E/DX2                !
 ! D118  D(29,33,37,26)         54.4237         estimate D2E/DX2                !
 ! D119  D(29,33,37,38)        -64.1442         estimate D2E/DX2                !
 ! D120  D(29,33,37,39)        174.3573         estimate D2E/DX2                !
 ! D121  D(34,33,37,26)        -64.4258         estimate D2E/DX2                !
 ! D122  D(34,33,37,38)        177.0063         estimate D2E/DX2                !
 ! D123  D(34,33,37,39)         55.5078         estimate D2E/DX2                !
 ! D124  D(35,33,37,26)        176.6262         estimate D2E/DX2                !
 ! D125  D(35,33,37,38)         58.0583         estimate D2E/DX2                !
 ! D126  D(35,33,37,39)        -63.4403         estimate D2E/DX2                !
 ! D127  D(26,37,39,40)        172.7039         estimate D2E/DX2                !
 ! D128  D(33,37,39,40)         51.1217         estimate D2E/DX2                !
 ! D129  D(38,37,39,40)        -68.3268         estimate D2E/DX2                !
 ! D130  D(26,41,44,45)        -84.1727         estimate D2E/DX2                !
 ! D131  D(42,41,44,45)        155.8504         estimate D2E/DX2                !
 ! D132  D(43,41,44,45)         36.879          estimate D2E/DX2                !
 --------------------------------------------------------------------------------
 Trust Radius=3.00D-01 FncErr=1.00D-07 GrdErr=1.00D-06 EigMax=2.50D+02 EigMin=1.00D-04
 Number of steps in this run=    270 maximum allowed number of steps=    270.
 GradGradGradGradGradGradGradGradGradGradGradGradGradGradGradGradGradGrad

 Leave Link  103 at Thu Mar 16 18:53:56 2023, MaxMem=   262144000 cpu:               0.1 elap:               0.0
 (Enter /dragofs/sw/campus/0.2/software/gaussian/16.gaussian/gaussian/g16_legacy/l202.exe)
                          Input orientation:                          
 ---------------------------------------------------------------------
 Center     Atomic      Atomic             Coordinates (Angstroms)
 Number     Number       Type             X           Y           Z
 ---------------------------------------------------------------------
      1          6           0        3.550783    0.288810   -0.514335
      2          1           0        3.098945    0.892650   -1.310497
      3          8           0        4.911524    0.484136   -0.593655
      4          1           0        5.337100   -0.110641    0.031850
      5          6           0        1.683275    0.635411    0.872196
      6          1           0        1.229977    1.046633   -0.036078
      7          8           0        3.095952    0.737510    0.755918
      8          6           0        3.148870   -1.176658   -0.684364
      9          1           0        3.695448   -1.763308    0.072983
     10          8           0        3.485724   -1.584508   -1.982881
     11          1           0        3.109418   -2.462820   -2.102805
     12          6           0        1.657205   -1.384431   -0.432437
     13          1           0        1.106538   -0.825676   -1.200943
     14          8           0        1.437429   -2.777672   -0.579476
     15          1           0        0.539715   -2.986380   -0.305381
     16          6           0        1.299981   -0.855456    0.950399
     17          1           0        1.878271   -1.365006    1.722921
     18          8           0       -0.070626   -1.046324    1.318121
     19          6           0        1.227460    1.525982    2.002957
     20          1           0        0.193047    1.301626    2.253398
     21          1           0        1.860410    1.373686    2.884399
     22          8           0        1.260735    2.879892    1.572897
     23          1           0        2.170512    3.069987    1.319546
     24          6           0       -1.030807   -0.801834    0.346105
     25          1           0       -0.835311   -1.366926   -0.581486
     26          6           0       -1.907062    1.043308   -0.902922
     27          1           0       -1.672238    0.588811   -1.876327
     28          8           0       -0.993707    0.575968    0.077715
     29          6           0       -2.392858   -1.206771    0.872087
     30          1           0       -2.588481   -0.665246    1.805805
     31          8           0       -2.476089   -2.605679    1.053756
     32          1           0       -1.907268   -2.837670    1.793781
     33          6           0       -3.422161   -0.819012   -0.174537
     34          1           0       -3.215406   -1.387715   -1.093999
     35          8           0       -4.739832   -1.064935    0.265874
     36          1           0       -4.792904   -1.994737    0.508819
     37          6           0       -3.328840    0.665624   -0.494773
     38          1           0       -3.590974    1.218752    0.419938
     39          8           0       -4.190139    1.006974   -1.553731
     40          1           0       -5.059310    0.658249   -1.329321
     41          6           0       -1.700377    2.553836   -0.960012
     42          1           0       -2.249862    2.950950   -1.814389
     43          1           0       -2.122790    2.991708   -0.046927
     44          8           0       -0.341774    2.890287   -1.105504
     45          1           0        0.068772    2.895022   -0.229755
 ---------------------------------------------------------------------
                    Distance matrix (angstroms):
                    1          2          3          4          5
     1  C    0.000000
     2  H    1.096656   0.000000
     3  O    1.376975   1.991529   0.000000
     4  H    1.910185   2.796038   0.962357   0.000000
     5  C    2.351635   2.614277   3.548689   3.822723   0.000000
     6  H    2.487803   2.267354   3.765778   4.267594   1.095237
     7  O    1.421881   2.072233   2.276367   2.503274   1.421127
     8  C    1.529065   2.162538   2.423513   2.537263   2.802578
     9  H    2.139406   3.053514   2.640881   2.329811   3.231321
    10  O    2.381214   2.595768   2.870913   3.107896   4.040833
    11  H    3.207726   3.447759   3.769572   3.879699   4.525876
    12  C    2.528256   2.834555   3.756079   3.921700   2.404685
    13  H    2.772696   2.633312   4.069684   4.464158   2.601020
    14  O    3.724758   4.094666   4.765389   4.763844   3.717113
    15  H    4.453882   4.754660   5.589302   5.603437   3.976404
    16  C    2.919058   3.376951   4.149922   4.206758   1.541335
    17  H    3.246185   3.973497   4.241046   4.049278   2.182527
    18  O    4.272597   4.551421   5.551488   5.636798   2.470476
    19  C    3.642140   3.857790   4.626031   4.842823   1.509803
    20  H    4.467721   4.616584   5.571178   5.778499   2.138303
    21  H    3.947874   4.400286   4.711418   4.735782   2.150671
    22  O    4.039129   3.955010   4.874613   5.285344   2.388978
    23  H    3.605997   3.538349   4.226122   4.669244   2.522832
    24  C    4.787570   4.761350   6.152086   6.413014   3.115876
    25  H    4.688688   4.595162   6.037606   6.328751   3.530697
    26  C    5.523435   5.024830   6.848462   7.394814   4.025909
    27  H    5.406013   4.814215   6.708362   7.298027   4.337743
    28  O    4.591881   4.333269   5.943982   6.368096   2.793021
    29  C    6.283772   6.271455   7.639474   7.852372   4.473086
    30  H    6.632031   6.669722   7.957924   8.140598   4.561933
    31  O    6.867326   6.993497   8.175435   8.265315   5.276167
    32  H    6.700194   6.972374   7.951740   7.938637   5.079725
    33  C    7.068570   6.837033   8.445363   8.790281   5.410774
    34  H    6.994860   6.716991   8.354709   8.720310   5.652967
    35  O    8.436566   8.231859   9.812598  10.124722   6.671964
    36  H    8.710829   8.598151  10.076516  10.314761   6.999330
    37  C    6.889963   6.483314   8.242955   8.716561   5.195268
    38  H    7.262393   6.917786   8.594155   9.034844   5.325648
    39  O    7.843340   7.294037   9.167081   9.722727   6.365546
    40  H    8.656465   8.161643   9.999453  10.513293   7.092930
    41  C    5.736171   5.090763   6.937947   7.590080   4.299586
    42  H    6.513418   5.753281   7.672080   8.387129   5.296133
    43  H    6.301869   5.767943   7.487884   8.079649   4.569798
    44  O    4.719021   3.983858   5.800749   6.522941   3.618921
    45  H    4.358638   3.789386   5.421904   6.071057   2.987768
                    6          7          8          9         10
     6  H    0.000000
     7  O    2.050531   0.000000
     8  C    3.007565   2.396091   0.000000
     9  H    3.739814   2.660806   1.102942   0.000000
    10  O    3.975090   3.611746   1.402126   2.074254   0.000000
    11  H    4.485523   4.291223   1.915136   2.359407   0.963026
    12  C    2.499939   2.825741   1.526991   2.133877   2.405699
    13  H    2.208549   3.198535   2.135688   3.033891   2.616826
    14  O    3.868285   4.109803   2.345907   2.559939   2.754759
    15  H    4.100510   4.639834   3.197876   3.405542   3.668545
    16  C    2.143824   2.408501   2.488777   2.707825   3.730030
    17  H    3.054565   2.615036   2.728538   2.486578   4.045374
    18  O    2.811742   3.677683   3.793691   4.030850   4.881996
    19  C    2.094623   2.380768   4.268228   4.542598   5.537311
    20  H    2.526251   3.314744   4.848631   5.139537   6.092418
    21  H    3.005594   2.541990   4.571701   4.594797   5.923088
    22  O    2.439382   2.936882   5.011574   5.453153   6.125765
    23  H    2.610801   2.571880   4.796544   5.219204   5.856631
    24  C    2.945172   4.423536   4.321118   4.830788   5.141576
    25  H    3.223066   4.655333   3.990048   4.594913   4.547812
    26  C    3.254603   5.279717   5.526162   6.341735   6.095397
    27  H    3.466839   5.448528   5.270744   6.176109   5.598146
    28  O    2.275795   4.148658   4.562171   5.240268   5.383216
    29  C    4.362055   5.824153   5.756231   6.165693   6.546087
    30  H    4.572055   5.948341   6.275323   6.610308   7.217697
    31  O    5.316206   6.504864   6.058327   6.305503   6.768099
    32  H    5.317753   6.236288   5.870664   5.958677   6.702086
    33  C    5.014199   6.765671   6.600476   7.184241   7.181571
    34  H    5.177516   6.911730   6.380937   7.018748   6.762690
    35  O    6.339441   8.055337   7.946512   8.466338   8.543221
    36  H    6.769190   8.352262   8.072466   8.502684   8.655203
    37  C    4.597650   6.545789   6.737260   7.454038   7.329109
    38  H    4.845528   6.712634   7.237608   7.880673   7.981946
    39  O    5.628721   7.648151   7.706173   8.514878   8.112880
    40  H    6.432608   8.418005   8.435465   9.191093   8.858595
    41  C    3.422322   5.408163   6.124358   6.987112   6.713255
    42  H    4.347194   6.331155   6.889152   7.818767   7.314077
    43  H    3.876143   5.741188   6.750704   7.515081   7.493003
    44  O    2.648232   4.462880   5.376058   6.272475   5.953429
    45  H    2.191449   3.845807   5.125646   5.911385   5.900441
                   11         12         13         14         15
    11  H    0.000000
    12  C    2.462108   0.000000
    13  H    2.739548   1.098200   0.000000
    14  O    2.283683   1.418112   2.075090   0.000000
    15  H    3.179343   1.957337   2.406649   0.961550   0.000000
    16  C    3.896118   1.523043   2.160227   2.460554   2.587629
    17  H    4.166185   2.166752   3.071714   2.736969   2.921403
    18  O    4.880766   2.482775   2.789280   2.978703   2.602324
    19  C    6.025744   3.819205   3.976166   5.023394   5.114961
    20  H    6.453896   4.070918   4.158407   5.119994   5.005449
    21  H    6.414905   4.318553   4.700589   5.423202   5.561394
    22  O    6.743366   4.728954   4.631328   6.055738   6.201689
    23  H    6.573126   4.814018   4.760367   6.191834   6.479156
    24  C    5.088958   2.858488   2.638592   3.294363   2.768251
    25  H    4.367640   2.497030   2.108899   2.674987   2.142326
    26  C    6.236804   4.338118   3.558610   5.088234   4.752069
    27  H    5.676969   4.130822   3.190378   4.762883   4.488051
    28  O    5.551985   3.336278   2.830301   4.193951   3.897239
    29  C    6.379865   4.258680   4.085151   4.387011   3.626765
    30  H    7.139647   4.853123   4.766491   5.134185   4.430618
    31  O    6.417334   4.558984   4.592090   4.244131   3.329754
    32  H    6.363257   4.446731   4.701012   4.101579   3.227433
    33  C    7.005844   5.117242   4.643562   5.255087   4.517861
    34  H    6.494377   4.917318   4.359647   4.883194   4.156751
    35  O    8.317178   6.442965   6.032316   6.465805   5.647291
    36  H    8.335849   6.546934   6.252472   6.372945   5.484807
    37  C    7.336491   5.391406   4.732360   5.880543   5.323412
    38  H    8.050681   5.920007   5.373412   6.500390   5.939008
    39  O    8.100894   6.416194   5.615857   6.851441   6.314806
    40  H    8.778808   7.077324   6.343201   7.387519   6.758761
    41  C    7.043220   5.202080   4.399764   6.198033   6.011701
    42  H    7.623252   5.997541   5.089660   6.923744   6.731325
    43  H    7.832912   5.795479   5.131543   6.800332   6.549295
    44  O    6.446789   4.766776   3.989373   5.963894   5.996035
    45  H    6.438968   4.569236   3.982933   5.845937   5.900711
                   16         17         18         19         20
    16  C    0.000000
    17  H    1.091261   0.000000
    18  O    1.431857   2.015842   0.000000
    19  C    2.604685   2.976539   2.961551   0.000000
    20  H    2.752474   3.198799   2.541089   1.087689   0.000000
    21  H    3.003916   2.974859   3.469665   1.095792   1.784224
    22  O    3.787066   4.292204   4.153626   1.420961   2.023354
    23  H    4.037722   4.462878   4.686867   1.933998   2.812392
    24  C    2.408447   3.267341   1.387998   3.641930   3.091946
    25  H    2.677264   3.560031   2.072688   4.393551   4.026817
    26  C    4.162358   5.198440   3.559788   4.301434   3.799940
    27  H    4.348606   5.420157   3.929800   4.933091   4.587158
    28  O    2.841049   3.836970   2.241097   3.089121   2.582356
    29  C    3.710339   4.357924   2.370116   4.674774   3.858365
    30  H    3.985980   4.521992   2.592807   4.404742   3.435960
    31  O    4.163252   4.576844   2.878842   5.629199   4.881645
    32  H    3.863536   4.062520   2.609296   5.376963   4.664369
    33  C    4.854424   5.656239   3.675933   5.644418   4.843728
    34  H    4.985136   5.820747   3.978004   6.149783   5.482260
    35  O    6.082088   6.783238   4.786340   6.733415   5.821010
    36  H    6.214194   6.809933   4.884093   7.132510   6.226498
    37  C    5.082144   6.012955   4.102842   5.266758   4.512276
    38  H    5.339023   6.187585   4.281373   5.081107   4.205622
    39  O    6.315119   7.293033   5.425307   6.501521   5.813207
    40  H    6.923078   7.844729   5.899278   7.168020   6.390388
    41  C    4.926976   5.946610   4.561483   4.290443   3.934347
    42  H    5.893570   6.941291   5.526291   5.356718   5.023442
    43  H    5.245064   6.174286   4.730797   4.192201   3.675728
    44  O    4.577411   5.571006   4.630808   3.739833   3.753945
    45  H    4.120039   5.023452   4.236692   2.863884   2.953033
                   21         22         23         24         25
    21  H    0.000000
    22  O    2.085259   0.000000
    23  H    2.328597   0.963336   0.000000
    24  C    4.419837   4.506805   5.117326   0.000000
    25  H    5.175927   5.202907   5.686395   1.103618   0.000000
    26  C    5.352270   4.420142   5.066893   2.394252   2.657292
    27  H    5.979978   5.074301   5.580015   2.698987   2.490375
    28  O    4.081643   3.553329   4.215988   1.404189   2.057783
    29  C    5.366418   5.526363   6.270185   1.515194   2.136464
    30  H    5.011311   5.238198   6.069302   2.139095   3.043866
    31  O    6.163751   6.657691   7.339941   2.417326   2.626914
    32  H    5.755029   6.540302   7.193997   2.647372   2.992336
    33  C    6.486183   6.218113   6.973850   2.447435   2.675371
    34  H    7.015475   6.735031   7.396244   2.681348   2.434739
    35  O    7.507779   7.299094   8.121617   3.719210   4.006807
    36  H    7.826637   7.844795   8.648576   3.950046   4.152765
    37  C    6.232854   5.499313   6.270214   2.853325   3.218146
    38  H    5.984577   5.256214   6.118095   3.262311   3.909253
    39  O    7.512697   6.557107   7.278023   4.106403   4.223214
    40  H    8.133253   7.300790   8.068662   4.600840   4.743707
    41  C    5.371355   3.910259   4.521789   3.662620   4.032864
    42  H    6.438999   4.878837   5.419910   4.498579   4.707978
    43  H    5.203513   3.752942   4.506198   3.967097   4.576139
    44  O    4.803022   3.121214   3.496390   4.026623   4.317642
    45  H    3.901588   2.161148   2.616918   3.899671   4.370959
                   26         27         28         29         30
    26  C    0.000000
    27  H    1.099649   0.000000
    28  O    1.419251   2.068538   0.000000
    29  C    2.906804   3.361129   2.401418   0.000000
    30  H    3.274247   3.996280   2.658987   1.096972   0.000000
    31  O    4.179412   4.408665   3.643212   1.413108   2.084104
    32  H    4.725907   5.026500   3.928409   1.935239   2.276757
    33  C    2.508845   2.817851   2.811937   1.518303   2.154164
    34  H    2.767336   2.626796   3.188246   2.138883   3.053500
    35  O    3.719591   4.090725   4.094071   2.428147   2.675715
    36  H    4.421630   4.701297   4.607415   2.552073   2.882568
    37  C    1.526658   2.158454   2.405957   2.500046   2.758986
    38  H    2.148557   3.057974   2.697422   2.742824   2.544615
    39  O    2.374303   2.572694   3.614493   3.743725   4.080210
    40  H    3.204178   3.431661   4.302981   3.928672   4.205431
    41  C    1.525671   2.168352   2.342695   4.240080   4.336008
    42  H    2.141817   2.432527   3.286111   4.952196   5.128093
    43  H    2.139049   3.053460   2.669488   4.306362   4.125869
    44  O    2.429506   2.767868   2.679757   4.990360   5.115196
    45  H    2.790326   3.325797   2.569321   4.909010   4.886717
                   31         32         33         34         35
    31  O    0.000000
    32  H    0.961777   0.000000
    33  C    2.365573   3.200649   0.000000
    34  H    2.577378   3.486096   1.100718   0.000000
    35  O    2.849418   3.674304   1.410921   2.068167   0.000000
    36  H    2.457201   3.269336   1.930865   2.329378   0.962482
    37  C    3.718407   4.419436   1.521645   2.141994   2.358880
    38  H    4.033729   4.601833   2.129408   3.037553   2.561023
    39  O    4.773701   5.585573   2.413750   2.626022   2.811749
    40  H    4.796385   5.648945   2.489193   2.764295   2.369826
    41  C    5.592637   6.057600   3.867508   4.224818   4.882273
    42  H    6.257281   6.829669   4.275045   4.502805   5.162826
    43  H    5.715511   6.116887   4.028180   4.633521   4.837676
    44  O    6.278801   6.608034   4.910640   5.153561   6.071851
    45  H    6.195275   6.392432   5.097422   5.465764   6.248966
                   36         37         38         39         40
    36  H    0.000000
    37  C    3.198156   0.000000
    38  H    3.432062   1.100618   0.000000
    39  O    3.691572   1.407035   2.073456   0.000000
    40  H    3.238528   1.921211   2.351612   0.963030   0.000000
    41  C    5.693040   2.536471   2.694637   2.990685   3.874541
    42  H    6.026954   2.851016   3.129107   2.758924   3.658520
    43  H    5.683572   2.658155   2.348808   3.237832   3.963927
    44  O    6.803092   3.774213   3.959584   4.307864   5.223718
    45  H    6.934777   4.072372   4.077465   4.843135   5.701704
                   41         42         43         44         45
    41  C    0.000000
    42  H    1.090685   0.000000
    43  H    1.097219   1.772493   0.000000
    44  O    1.407185   2.036418   2.074341   0.000000
    45  H    1.944112   2.808960   2.201299   0.967216   0.000000
 Stoichiometry    C12H22O11
 Framework group  C1[X(C12H22O11)]
 Deg. of freedom   129
 Full point group                 C1      NOp   1
 Largest Abelian subgroup         C1      NOp   1
 Largest concise Abelian subgroup C1      NOp   1
                         Standard orientation:                         
 ---------------------------------------------------------------------
 Center     Atomic      Atomic             Coordinates (Angstroms)
 Number     Number       Type             X           Y           Z
 ---------------------------------------------------------------------
      1          6           0        3.550783    0.288810   -0.514335
      2          1           0        3.098945    0.892650   -1.310497
      3          8           0        4.911524    0.484136   -0.593655
      4          1           0        5.337100   -0.110641    0.031850
      5          6           0        1.683275    0.635411    0.872196
      6          1           0        1.229977    1.046633   -0.036078
      7          8           0        3.095952    0.737510    0.755918
      8          6           0        3.148870   -1.176658   -0.684364
      9          1           0        3.695448   -1.763308    0.072983
     10          8           0        3.485724   -1.584508   -1.982881
     11          1           0        3.109418   -2.462820   -2.102805
     12          6           0        1.657205   -1.384431   -0.432437
     13          1           0        1.106538   -0.825676   -1.200943
     14          8           0        1.437429   -2.777672   -0.579476
     15          1           0        0.539715   -2.986380   -0.305381
     16          6           0        1.299981   -0.855456    0.950399
     17          1           0        1.878271   -1.365006    1.722921
     18          8           0       -0.070626   -1.046324    1.318121
     19          6           0        1.227460    1.525982    2.002957
     20          1           0        0.193047    1.301626    2.253398
     21          1           0        1.860410    1.373686    2.884399
     22          8           0        1.260735    2.879892    1.572897
     23          1           0        2.170512    3.069987    1.319546
     24          6           0       -1.030807   -0.801834    0.346105
     25          1           0       -0.835311   -1.366926   -0.581486
     26          6           0       -1.907062    1.043308   -0.902922
     27          1           0       -1.672238    0.588811   -1.876327
     28          8           0       -0.993707    0.575968    0.077715
     29          6           0       -2.392858   -1.206771    0.872087
     30          1           0       -2.588481   -0.665246    1.805805
     31          8           0       -2.476089   -2.605679    1.053756
     32          1           0       -1.907268   -2.837670    1.793781
     33          6           0       -3.422161   -0.819012   -0.174537
     34          1           0       -3.215406   -1.387715   -1.093999
     35          8           0       -4.739832   -1.064935    0.265874
     36          1           0       -4.792904   -1.994737    0.508819
     37          6           0       -3.328840    0.665624   -0.494773
     38          1           0       -3.590974    1.218752    0.419938
     39          8           0       -4.190139    1.006974   -1.553731
     40          1           0       -5.059310    0.658249   -1.329321
     41          6           0       -1.700377    2.553836   -0.960012
     42          1           0       -2.249862    2.950950   -1.814389
     43          1           0       -2.122790    2.991708   -0.046927
     44          8           0       -0.341774    2.890287   -1.105504
     45          1           0        0.068772    2.895022   -0.229755
 ---------------------------------------------------------------------
 Rotational constants (GHZ):           0.3931519           0.1734217           0.1473219
 Leave Link  202 at Thu Mar 16 18:53:56 2023, MaxMem=   262144000 cpu:               0.0 elap:               0.0
 (Enter /dragofs/sw/campus/0.2/software/gaussian/16.gaussian/gaussian/g16_legacy/l301.exe)
 Standard basis: 6-311G(d,p) (5D, 7F)
 Ernie: Thresh=  0.10000D-02 Tol=  0.10000D-05 Strict=F.
 There are   569 symmetry adapted cartesian basis functions of A   symmetry.
 There are   546 symmetry adapted basis functions of A   symmetry.
   546 basis functions,   912 primitive gaussians,   569 cartesian basis functions
    91 alpha electrons       91 beta electrons
       nuclear repulsion energy      2379.7542117505 Hartrees.
 IExCor= 4336 DFT=T Ex+Corr=M062X ExCW=0 ScaHFX=  0.540000
 ScaDFX=  1.000000  1.000000  1.000000  1.000000 ScalE2=  1.000000  1.000000
 IRadAn=      5 IRanWt=     -1 IRanGd=            0 ICorTp=0 IEmpDi=  4
 NAtoms=   45 NActive=   45 NUniq=   45 SFac= 1.00D+00 NAtFMM=   60 NAOKFM=F Big=F
 Integral buffers will be    131072 words long.
 Raffenetti 2 integral format.
 Two-electron integral symmetry is turned on.
 Leave Link  301 at Thu Mar 16 18:53:56 2023, MaxMem=   262144000 cpu:               0.4 elap:               0.1
 (Enter /dragofs/sw/campus/0.2/software/gaussian/16.gaussian/gaussian/g16_legacy/l302.exe)
 NPDir=0 NMtPBC=     1 NCelOv=     1 NCel=       1 NClECP=     1 NCelD=      1
         NCelK=      1 NCelE2=     1 NClLst=     1 CellRange=     0.0.
 One-electron integrals computed using PRISM.
 One-electron integral symmetry used in STVInt
 NBasis=   546 RedAO= T EigKep=  6.88D-04  NBF=   546
 NBsUse=   546 1.00D-06 EigRej= -1.00D+00 NBFU=   546
 Precomputing XC quadrature grid using
 IXCGrd= 4 IRadAn=           5 IRanWt=          -1 IRanGd=           0 AccXCQ= 0.00D+00.
 Generated NRdTot=       0 NPtTot=           0 NUsed=           0 NTot=          32
 NSgBfM=   563   562   562   562   563 MxSgAt=    45 MxSgA2=    45.
 Leave Link  302 at Thu Mar 16 18:53:57 2023, MaxMem=   262144000 cpu:               7.1 elap:               0.9
 (Enter /dragofs/sw/campus/0.2/software/gaussian/16.gaussian/gaussian/g16_legacy/l303.exe)
 DipDrv:  MaxL=1.
 Leave Link  303 at Thu Mar 16 18:53:57 2023, MaxMem=   262144000 cpu:               0.5 elap:               0.1
 (Enter /dragofs/sw/campus/0.2/software/gaussian/16.gaussian/gaussian/g16_legacy/l401.exe)
 ExpMin= 1.03D-01 ExpMax= 8.59D+03 ExpMxC= 1.30D+03 IAcc=3 IRadAn=         5 AccDes= 0.00D+00
 Harris functional with IExCor= 1009 and IRadAn=       5 diagonalized for initial guess.
 HarFok:  IExCor= 1009 AccDes= 0.00D+00 IRadAn=         5 IDoV= 1 UseB2=F ITyADJ=14
 ICtDFT=  3500011 ScaDFX=  1.000000  1.000000  1.000000  1.000000
 FoFCou: FMM=F IPFlag=           0 FMFlag=      100000 FMFlg1=           0
         NFxFlg=           0 DoJE=T BraDBF=F KetDBF=T FulRan=T
         wScrn=  0.000000 ICntrl=       500 IOpCl=  0 I1Cent=   200000004 NGrid=           0
         NMat0=    1 NMatS0=      1 NMatT0=    0 NMatD0=    1 NMtDS0=    0 NMtDT0=    0
 Petite list used in FoFCou.
 Harris En= -1297.11303462577    
 JPrj=0 DoOrth=F DoCkMO=F.
 Leave Link  401 at Thu Mar 16 18:54:02 2023, MaxMem=   262144000 cpu:              44.6 elap:               5.6
 (Enter /dragofs/sw/campus/0.2/software/gaussian/16.gaussian/gaussian/g16_legacy/l502.exe)
 Integral symmetry usage will be decided dynamically.
 Closed shell SCF:
 Using DIIS extrapolation, IDIIS=  1040.
 NGot=   262144000 LenX=   261486196 LenY=   261161866
 Requested convergence on RMS density matrix=1.00D-08 within 128 cycles.
 Requested convergence on MAX density matrix=1.00D-06.
 Requested convergence on             energy=1.00D-06.
 No special actions if energy rises.
 Fock matrices will be formed incrementally for  20 cycles.
 Integral accuracy reduced to 1.0D-05 until final iterations.

 Cycle   1  Pass 0  IDiag  1:
 FoFJK:  IHMeth= 1 ICntrl=       0 DoSepK=F KAlg= 0 I1Cent=           0 FoldK=F
 IRaf= 770000000 NMat=       1 IRICut=       1 DoRegI=T DoRafI=F ISym2E= 0 IDoP0=0 IntGTp=1.
 FoFCou: FMM=F IPFlag=           0 FMFlag=      100000 FMFlg1=           0
         NFxFlg=           0 DoJE=F BraDBF=F KetDBF=F FulRan=T
         wScrn=  0.000000 ICntrl=         0 IOpCl=  0 I1Cent=           0 NGrid=           0
         NMat0=    1 NMatS0=      1 NMatT0=    0 NMatD0=    1 NMtDS0=    0 NMtDT0=    0
 Symmetry not used in FoFCou.
 E= -1297.33632107192    
 DIIS: error= 1.52D-02 at cycle   1 NSaved=   1.
 NSaved= 1 IEnMin= 1 EnMin= -1297.33632107192     IErMin= 1 ErrMin= 1.52D-02
 ErrMax= 1.52D-02  0.00D+00 EMaxC= 1.00D-01 BMatC= 8.48D-01 BMatP= 8.48D-01
 IDIUse=3 WtCom= 8.48D-01 WtEn= 1.52D-01
 Coeff-Com:  0.100D+01
 Coeff-En:   0.100D+01
 Coeff:      0.100D+01
 Gap=     0.392 Goal=   None    Shift=    0.000
 GapD=    0.392 DampG=1.000 DampE=0.500 DampFc=0.5000 IDamp=-1.
 Damping current iteration by 5.00D-01
 RMSDP=2.63D-03 MaxDP=1.74D-01              OVMax= 1.11D-01

 Cycle   2  Pass 0  IDiag  1:
 RMSU=  1.31D-03    CP:  1.01D+00
 E= -1297.57733870265     Delta-E=       -0.241017630727 Rises=F Damp=T
 DIIS: error= 6.28D-03 at cycle   2 NSaved=   2.
 NSaved= 2 IEnMin= 2 EnMin= -1297.57733870265     IErMin= 2 ErrMin= 6.28D-03
 ErrMax= 6.28D-03  0.00D+00 EMaxC= 1.00D-01 BMatC= 6.95D-02 BMatP= 8.48D-01
 IDIUse=3 WtCom= 9.37D-01 WtEn= 6.28D-02
 Coeff-Com: -0.925D-01 0.109D+01
 Coeff-En:   0.000D+00 0.100D+01
 Coeff:     -0.867D-01 0.109D+01
 Gap=     0.389 Goal=   None    Shift=    0.000
 RMSDP=4.70D-04 MaxDP=1.56D-02 DE=-2.41D-01 OVMax= 5.74D-02

 Cycle   3  Pass 0  IDiag  1:
 RMSU=  4.63D-04    CP:  1.01D+00  9.40D-01
 E= -1297.81069248559     Delta-E=       -0.233353782940 Rises=F Damp=F
 DIIS: error= 3.40D-03 at cycle   3 NSaved=   3.
 NSaved= 3 IEnMin= 3 EnMin= -1297.81069248559     IErMin= 3 ErrMin= 3.40D-03
 ErrMax= 3.40D-03  0.00D+00 EMaxC= 1.00D-01 BMatC= 1.94D-02 BMatP= 6.95D-02
 IDIUse=3 WtCom= 9.66D-01 WtEn= 3.40D-02
 Coeff-Com: -0.110D+00 0.360D+00 0.750D+00
 Coeff-En:   0.000D+00 0.000D+00 0.100D+01
 Coeff:     -0.107D+00 0.348D+00 0.759D+00
 Gap=     0.379 Goal=   None    Shift=    0.000
 RMSDP=2.63D-04 MaxDP=1.20D-02 DE=-2.33D-01 OVMax= 1.27D-02

 Cycle   4  Pass 0  IDiag  1:
 RMSU=  1.92D-04    CP:  1.02D+00  1.03D+00  7.20D-01
 E= -1297.82189334386     Delta-E=       -0.011200858273 Rises=F Damp=F
 DIIS: error= 1.27D-03 at cycle   4 NSaved=   4.
 NSaved= 4 IEnMin= 4 EnMin= -1297.82189334386     IErMin= 4 ErrMin= 1.27D-03
 ErrMax= 1.27D-03  0.00D+00 EMaxC= 1.00D-01 BMatC= 2.66D-03 BMatP= 1.94D-02
 IDIUse=3 WtCom= 9.87D-01 WtEn= 1.27D-02
 Coeff-Com: -0.397D-01 0.931D-01 0.353D+00 0.593D+00
 Coeff-En:   0.000D+00 0.000D+00 0.755D-01 0.925D+00
 Coeff:     -0.391D-01 0.919D-01 0.350D+00 0.598D+00
 Gap=     0.370 Goal=   None    Shift=    0.000
 RMSDP=1.02D-04 MaxDP=4.38D-03 DE=-1.12D-02 OVMax= 4.69D-03

 Cycle   5  Pass 0  IDiag  1:
 RMSU=  3.58D-05    CP:  1.02D+00  1.02D+00  8.13D-01  5.67D-01
 E= -1297.82421386795     Delta-E=       -0.002320524092 Rises=F Damp=F
 DIIS: error= 1.25D-04 at cycle   5 NSaved=   5.
 NSaved= 5 IEnMin= 5 EnMin= -1297.82421386795     IErMin= 5 ErrMin= 1.25D-04
 ErrMax= 1.25D-04  0.00D+00 EMaxC= 1.00D-01 BMatC= 3.10D-05 BMatP= 2.66D-03
 IDIUse=3 WtCom= 9.99D-01 WtEn= 1.25D-03
 Coeff-Com: -0.630D-02 0.114D-01 0.642D-01 0.159D+00 0.772D+00
 Coeff-En:   0.000D+00 0.000D+00 0.000D+00 0.000D+00 0.100D+01
 Coeff:     -0.629D-02 0.113D-01 0.641D-01 0.159D+00 0.772D+00
 Gap=     0.370 Goal=   None    Shift=    0.000
 RMSDP=1.43D-05 MaxDP=6.37D-04 DE=-2.32D-03 OVMax= 6.48D-04

 Cycle   6  Pass 0  IDiag  1:
 RMSU=  9.41D-06    CP:  1.02D+00  1.02D+00  8.16D-01  6.12D-01  8.25D-01
 E= -1297.82423529037     Delta-E=       -0.000021422412 Rises=F Damp=F
 DIIS: error= 5.90D-05 at cycle   6 NSaved=   6.
 NSaved= 6 IEnMin= 6 EnMin= -1297.82423529037     IErMin= 6 ErrMin= 5.90D-05
 ErrMax= 5.90D-05  0.00D+00 EMaxC= 1.00D-01 BMatC= 5.26D-06 BMatP= 3.10D-05
 IDIUse=1 WtCom= 1.00D+00 WtEn= 0.00D+00
 Coeff-Com: -0.875D-03 0.577D-03 0.121D-01 0.445D-01 0.343D+00 0.600D+00
 Coeff:     -0.875D-03 0.577D-03 0.121D-01 0.445D-01 0.343D+00 0.600D+00
 Gap=     0.370 Goal=   None    Shift=    0.000
 RMSDP=4.31D-06 MaxDP=2.31D-04 DE=-2.14D-05 OVMax= 2.56D-04

 Initial convergence to 1.0D-05 achieved.  Increase integral accuracy.
 Cycle   7  Pass 1  IDiag  1:
 E= -1297.82421585277     Delta-E=        0.000019437593 Rises=F Damp=F
 DIIS: error= 2.58D-05 at cycle   1 NSaved=   1.
 NSaved= 1 IEnMin= 1 EnMin= -1297.82421585277     IErMin= 1 ErrMin= 2.58D-05
 ErrMax= 2.58D-05  0.00D+00 EMaxC= 1.00D-01 BMatC= 1.15D-06 BMatP= 1.15D-06
 IDIUse=1 WtCom= 1.00D+00 WtEn= 0.00D+00
 Coeff-Com:  0.100D+01
 Coeff:      0.100D+01
 Gap=     0.370 Goal=   None    Shift=    0.000
 RMSDP=4.31D-06 MaxDP=2.31D-04 DE= 1.94D-05 OVMax= 1.83D-04

 Cycle   8  Pass 1  IDiag  1:
 RMSU=  1.19D-05    CP:  1.00D+00
 E= -1297.82421639578     Delta-E=       -0.000000543008 Rises=F Damp=F
 DIIS: error= 2.75D-05 at cycle   2 NSaved=   2.
 NSaved= 2 IEnMin= 2 EnMin= -1297.82421639578     IErMin= 1 ErrMin= 2.58D-05
 ErrMax= 2.75D-05  0.00D+00 EMaxC= 1.00D-01 BMatC= 7.23D-07 BMatP= 1.15D-06
 IDIUse=1 WtCom= 1.00D+00 WtEn= 0.00D+00
 Coeff-Com:  0.426D+00 0.574D+00
 Coeff:      0.426D+00 0.574D+00
 Gap=     0.370 Goal=   None    Shift=    0.000
 RMSDP=1.60D-06 MaxDP=1.18D-04 DE=-5.43D-07 OVMax= 1.10D-04

 Cycle   9  Pass 1  IDiag  1:
 RMSU=  1.59D-06    CP:  1.00D+00  1.00D+00
 E= -1297.82421681867     Delta-E=       -0.000000422885 Rises=F Damp=F
 DIIS: error= 9.66D-06 at cycle   3 NSaved=   3.
 NSaved= 3 IEnMin= 3 EnMin= -1297.82421681867     IErMin= 3 ErrMin= 9.66D-06
 ErrMax= 9.66D-06  0.00D+00 EMaxC= 1.00D-01 BMatC= 8.92D-08 BMatP= 7.23D-07
 IDIUse=1 WtCom= 1.00D+00 WtEn= 0.00D+00
 Coeff-Com: -0.279D-01 0.249D+00 0.779D+00
 Coeff:     -0.279D-01 0.249D+00 0.779D+00
 Gap=     0.370 Goal=   None    Shift=    0.000
 RMSDP=5.29D-07 MaxDP=3.09D-05 DE=-4.23D-07 OVMax= 3.32D-05

 Cycle  10  Pass 1  IDiag  1:
 RMSU=  2.43D-07    CP:  1.00D+00  1.02D+00  7.67D-01
 E= -1297.82421687965     Delta-E=       -0.000000060987 Rises=F Damp=F
 DIIS: error= 7.24D-07 at cycle   4 NSaved=   4.
 NSaved= 4 IEnMin= 4 EnMin= -1297.82421687965     IErMin= 4 ErrMin= 7.24D-07
 ErrMax= 7.24D-07  0.00D+00 EMaxC= 1.00D-01 BMatC= 7.31D-10 BMatP= 8.92D-08
 IDIUse=1 WtCom= 1.00D+00 WtEn= 0.00D+00
 Coeff-Com: -0.123D-01 0.589D-01 0.206D+00 0.747D+00
 Coeff:     -0.123D-01 0.589D-01 0.206D+00 0.747D+00
 Gap=     0.370 Goal=   None    Shift=    0.000
 RMSDP=7.48D-08 MaxDP=3.32D-06 DE=-6.10D-08 OVMax= 3.47D-06

 Cycle  11  Pass 1  IDiag  1:
 RMSU=  7.22D-08    CP:  1.00D+00  1.03D+00  7.77D-01  9.74D-01
 E= -1297.82421688023     Delta-E=       -0.000000000573 Rises=F Damp=F
 DIIS: error= 4.87D-07 at cycle   5 NSaved=   5.
 NSaved= 5 IEnMin= 5 EnMin= -1297.82421688023     IErMin= 5 ErrMin= 4.87D-07
 ErrMax= 4.87D-07  0.00D+00 EMaxC= 1.00D-01 BMatC= 2.02D-10 BMatP= 7.31D-10
 IDIUse=1 WtCom= 1.00D+00 WtEn= 0.00D+00
 Coeff-Com: -0.736D-03-0.137D-01-0.348D-01 0.321D+00 0.728D+00
 Coeff:     -0.736D-03-0.137D-01-0.348D-01 0.321D+00 0.728D+00
 Gap=     0.370 Goal=   None    Shift=    0.000
 RMSDP=2.94D-08 MaxDP=1.61D-06 DE=-5.73D-10 OVMax= 1.74D-06

 Cycle  12  Pass 1  IDiag  1:
 RMSU=  1.82D-08    CP:  1.00D+00  1.03D+00  7.77D-01  1.06D+00  8.80D-01
 E= -1297.82421688047     Delta-E=       -0.000000000247 Rises=F Damp=F
 DIIS: error= 9.36D-08 at cycle   6 NSaved=   6.
 NSaved= 6 IEnMin= 6 EnMin= -1297.82421688047     IErMin= 6 ErrMin= 9.36D-08
 ErrMax= 9.36D-08  0.00D+00 EMaxC= 1.00D-01 BMatC= 1.51D-11 BMatP= 2.02D-10
 IDIUse=1 WtCom= 1.00D+00 WtEn= 0.00D+00
 Coeff-Com:  0.834D-03-0.110D-01-0.334D-01 0.601D-01 0.285D+00 0.698D+00
 Coeff:      0.834D-03-0.110D-01-0.334D-01 0.601D-01 0.285D+00 0.698D+00
 Gap=     0.370 Goal=   None    Shift=    0.000
 RMSDP=8.54D-09 MaxDP=4.00D-07 DE=-2.47D-10 OVMax= 5.90D-07

 SCF Done:  E(RM062X) =  -1297.82421688     A.U. after   12 cycles
            NFock= 12  Conv=0.85D-08     -V/T= 2.0029
 KE= 1.294074922341D+03 PE=-7.807171304639D+03 EE= 2.835517953667D+03
 Leave Link  502 at Thu Mar 16 18:57:27 2023, MaxMem=   262144000 cpu:            1629.3 elap:             204.9
 (Enter /dragofs/sw/campus/0.2/software/gaussian/16.gaussian/gaussian/g16_legacy/l601.exe)
 Copying SCF densities to generalized density rwf, IOpCl= 0 IROHF=0.

 **********************************************************************

            Population analysis using the SCF density.

 **********************************************************************

 Orbital symmetries:
       Occupied  (A) (A) (A) (A) (A) (A) (A) (A) (A) (A) (A) (A)
                 (A) (A) (A) (A) (A) (A) (A) (A) (A) (A) (A) (A)
                 (A) (A) (A) (A) (A) (A) (A) (A) (A) (A) (A) (A)
                 (A) (A) (A) (A) (A) (A) (A) (A) (A) (A) (A) (A)
                 (A) (A) (A) (A) (A) (A) (A) (A) (A) (A) (A) (A)
                 (A) (A) (A) (A) (A) (A) (A) (A) (A) (A) (A) (A)
                 (A) (A) (A) (A) (A) (A) (A) (A) (A) (A) (A) (A)
                 (A) (A) (A) (A) (A) (A) (A)
       Virtual   (A) (A) (A) (A) (A) (A) (A) (A) (A) (A) (A) (A)
                 (A) (A) (A) (A) (A) (A) (A) (A) (A) (A) (A) (A)
                 (A) (A) (A) (A) (A) (A) (A) (A) (A) (A) (A) (A)
                 (A) (A) (A) (A) (A) (A) (A) (A) (A) (A) (A) (A)
                 (A) (A) (A) (A) (A) (A) (A) (A) (A) (A) (A) (A)
                 (A) (A) (A) (A) (A) (A) (A) (A) (A) (A) (A) (A)
                 (A) (A) (A) (A) (A) (A) (A) (A) (A) (A) (A) (A)
                 (A) (A) (A) (A) (A) (A) (A) (A) (A) (A) (A) (A)
                 (A) (A) (A) (A) (A) (A) (A) (A) (A) (A) (A) (A)
                 (A) (A) (A) (A) (A) (A) (A) (A) (A) (A) (A) (A)
                 (A) (A) (A) (A) (A) (A) (A) (A) (A) (A) (A) (A)
                 (A) (A) (A) (A) (A) (A) (A) (A) (A) (A) (A) (A)
                 (A) (A) (A) (A) (A) (A) (A) (A) (A) (A) (A) (A)
                 (A) (A) (A) (A) (A) (A) (A) (A) (A) (A) (A) (A)
                 (A) (A) (A) (A) (A) (A) (A) (A) (A) (A) (A) (A)
                 (A) (A) (A) (A) (A) (A) (A) (A) (A) (A) (A) (A)
                 (A) (A) (A) (A) (A) (A) (A) (A) (A) (A) (A) (A)
                 (A) (A) (A) (A) (A) (A) (A) (A) (A) (A) (A) (A)
                 (A) (A) (A) (A) (A) (A) (A) (A) (A) (A) (A) (A)
                 (A) (A) (A) (A) (A) (A) (A) (A) (A) (A) (A) (A)
                 (A) (A) (A) (A) (A) (A) (A) (A) (A) (A) (A) (A)
                 (A) (A) (A) (A) (A) (A) (A) (A) (A) (A) (A) (A)
                 (A) (A) (A) (A) (A) (A) (A) (A) (A) (A) (A) (A)
                 (A) (A) (A) (A) (A) (A) (A) (A) (A) (A) (A) (A)
                 (A) (A) (A) (A) (A) (A) (A) (A) (A) (A) (A) (A)
                 (A) (A) (A) (A) (A) (A) (A) (A) (A) (A) (A) (A)
                 (A) (A) (A) (A) (A) (A) (A) (A) (A) (A) (A) (A)
                 (A) (A) (A) (A) (A) (A) (A) (A) (A) (A) (A) (A)
                 (A) (A) (A) (A) (A) (A) (A) (A) (A) (A) (A) (A)
                 (A) (A) (A) (A) (A) (A) (A) (A) (A) (A) (A) (A)
                 (A) (A) (A) (A) (A) (A) (A) (A) (A) (A) (A) (A)
                 (A) (A) (A) (A) (A) (A) (A) (A) (A) (A) (A) (A)
                 (A) (A) (A) (A) (A) (A) (A) (A) (A) (A) (A) (A)
                 (A) (A) (A) (A) (A) (A) (A) (A) (A) (A) (A) (A)
                 (A) (A) (A) (A) (A) (A) (A) (A) (A) (A) (A) (A)
                 (A) (A) (A) (A) (A) (A) (A) (A) (A) (A) (A) (A)
                 (A) (A) (A) (A) (A) (A) (A) (A) (A) (A) (A) (A)
                 (A) (A) (A) (A) (A) (A) (A) (A) (A) (A) (A)
 The electronic state is 1-A.
 Alpha  occ. eigenvalues --  -19.66632 -19.65284 -19.65188 -19.64470 -19.64052
 Alpha  occ. eigenvalues --  -19.63854 -19.63033 -19.62978 -19.62811 -19.62355
 Alpha  occ. eigenvalues --  -19.60533 -10.66797 -10.64827 -10.61722 -10.61408
 Alpha  occ. eigenvalues --  -10.61180 -10.60909 -10.60479 -10.60407 -10.60392
 Alpha  occ. eigenvalues --  -10.59812 -10.58960 -10.58385  -1.24155  -1.21415
 Alpha  occ. eigenvalues --   -1.19033  -1.18397  -1.17672  -1.16636  -1.16032
 Alpha  occ. eigenvalues --   -1.15218  -1.15052  -1.13940  -1.13285  -0.92396
 Alpha  occ. eigenvalues --   -0.90475  -0.88649  -0.87363  -0.80451  -0.78904
 Alpha  occ. eigenvalues --   -0.76501  -0.73447  -0.72125  -0.71805  -0.69885
 Alpha  occ. eigenvalues --   -0.69630  -0.65554  -0.64801  -0.63659  -0.62211
 Alpha  occ. eigenvalues --   -0.61453  -0.60851  -0.59345  -0.59100  -0.58418
 Alpha  occ. eigenvalues --   -0.58043  -0.57221  -0.55996  -0.55455  -0.55047
 Alpha  occ. eigenvalues --   -0.53983  -0.52803  -0.52045  -0.51197  -0.50903
 Alpha  occ. eigenvalues --   -0.50220  -0.49546  -0.48977  -0.47496  -0.47092
 Alpha  occ. eigenvalues --   -0.46435  -0.46070  -0.45392  -0.44468  -0.43469
 Alpha  occ. eigenvalues --   -0.43025  -0.42653  -0.42039  -0.41471  -0.40315
 Alpha  occ. eigenvalues --   -0.39614  -0.38809  -0.37994  -0.37652  -0.37396
 Alpha  occ. eigenvalues --   -0.36455  -0.36137  -0.35684  -0.34865  -0.34059
 Alpha  occ. eigenvalues --   -0.33448
 Alpha virt. eigenvalues --    0.03552   0.04919   0.06554   0.06683   0.07253
 Alpha virt. eigenvalues --    0.08304   0.08759   0.09156   0.10554   0.10773
 Alpha virt. eigenvalues --    0.11688   0.12017   0.12233   0.13482   0.14303
 Alpha virt. eigenvalues --    0.14741   0.14876   0.15811   0.16458   0.16831
 Alpha virt. eigenvalues --    0.17377   0.18007   0.18596   0.19869   0.20248
 Alpha virt. eigenvalues --    0.20651   0.22816   0.23447   0.24295   0.24428
 Alpha virt. eigenvalues --    0.24790   0.25656   0.25970   0.27564   0.27700
 Alpha virt. eigenvalues --    0.28565   0.29633   0.30446   0.31601   0.31836
 Alpha virt. eigenvalues --    0.32975   0.33196   0.33692   0.34235   0.36319
 Alpha virt. eigenvalues --    0.37173   0.38843   0.39263   0.39799   0.41602
 Alpha virt. eigenvalues --    0.41783   0.42470   0.42924   0.43487   0.44162
 Alpha virt. eigenvalues --    0.44472   0.46256   0.46997   0.47712   0.47817
 Alpha virt. eigenvalues --    0.48800   0.49165   0.49588   0.50010   0.50430
 Alpha virt. eigenvalues --    0.51031   0.51393   0.51841   0.53049   0.53584
 Alpha virt. eigenvalues --    0.54729   0.54749   0.55951   0.56344   0.56807
 Alpha virt. eigenvalues --    0.57252   0.57758   0.58102   0.59441   0.59704
 Alpha virt. eigenvalues --    0.60387   0.60930   0.61510   0.62383   0.62682
 Alpha virt. eigenvalues --    0.63210   0.63543   0.64753   0.65272   0.65467
 Alpha virt. eigenvalues --    0.65785   0.65896   0.66252   0.67897   0.67920
 Alpha virt. eigenvalues --    0.69104   0.69515   0.69837   0.70861   0.71109
 Alpha virt. eigenvalues --    0.72234   0.73120   0.75423   0.78286   0.79622
 Alpha virt. eigenvalues --    0.81176   0.83738   0.85657   0.86131   0.87846
 Alpha virt. eigenvalues --    0.88305   0.89038   0.90126   0.90639   0.91462
 Alpha virt. eigenvalues --    0.92350   0.92899   0.93287   0.94107   0.94966
 Alpha virt. eigenvalues --    0.96833   0.97193   0.97782   0.98599   0.99001
 Alpha virt. eigenvalues --    0.99546   1.00811   1.01180   1.02671   1.03700
 Alpha virt. eigenvalues --    1.04596   1.05258   1.06813   1.08175   1.09008
 Alpha virt. eigenvalues --    1.09825   1.10280   1.11074   1.11909   1.12937
 Alpha virt. eigenvalues --    1.13554   1.15022   1.15295   1.16941   1.18369
 Alpha virt. eigenvalues --    1.19394   1.20198   1.20792   1.22379   1.23744
 Alpha virt. eigenvalues --    1.23924   1.25467   1.26082   1.26760   1.28561
 Alpha virt. eigenvalues --    1.29414   1.32166   1.33112   1.33847   1.35838
 Alpha virt. eigenvalues --    1.36759   1.38185   1.40169   1.40681   1.41722
 Alpha virt. eigenvalues --    1.42255   1.43399   1.43889   1.44538   1.45493
 Alpha virt. eigenvalues --    1.45865   1.47233   1.48281   1.48742   1.49918
 Alpha virt. eigenvalues --    1.50705   1.51075   1.51628   1.52488   1.52694
 Alpha virt. eigenvalues --    1.53095   1.54759   1.54913   1.55351   1.55982
 Alpha virt. eigenvalues --    1.56918   1.57118   1.57567   1.57922   1.58458
 Alpha virt. eigenvalues --    1.59518   1.60329   1.60755   1.61344   1.62317
 Alpha virt. eigenvalues --    1.63284   1.63800   1.65038   1.65098   1.65632
 Alpha virt. eigenvalues --    1.66537   1.67029   1.67502   1.68854   1.69311
 Alpha virt. eigenvalues --    1.70224   1.71063   1.72441   1.74406   1.74957
 Alpha virt. eigenvalues --    1.75687   1.77001   1.77337   1.77619   1.78566
 Alpha virt. eigenvalues --    1.80918   1.81163   1.81555   1.82543   1.83356
 Alpha virt. eigenvalues --    1.84327   1.84836   1.86588   1.86826   1.87956
 Alpha virt. eigenvalues --    1.89664   1.90406   1.90847   1.92286   1.93596
 Alpha virt. eigenvalues --    1.93670   1.94777   1.95878   1.97218   1.98131
 Alpha virt. eigenvalues --    1.98973   2.00132   2.00798   2.02603   2.04702
 Alpha virt. eigenvalues --    2.04957   2.05935   2.06051   2.07383   2.07583
 Alpha virt. eigenvalues --    2.09111   2.09638   2.10175   2.10910   2.12387
 Alpha virt. eigenvalues --    2.13485   2.14121   2.14521   2.15039   2.15670
 Alpha virt. eigenvalues --    2.17090   2.17584   2.18029   2.19483   2.19959
 Alpha virt. eigenvalues --    2.21126   2.23733   2.23918   2.25425   2.26581
 Alpha virt. eigenvalues --    2.26737   2.29665   2.30369   2.31313   2.34287
 Alpha virt. eigenvalues --    2.34619   2.36327   2.41545   2.43765   2.45134
 Alpha virt. eigenvalues --    2.46643   2.47262   2.47716   2.49615   2.51935
 Alpha virt. eigenvalues --    2.52473   2.53765   2.53951   2.55139   2.56444
 Alpha virt. eigenvalues --    2.56894   2.58014   2.58400   2.59402   2.60542
 Alpha virt. eigenvalues --    2.60959   2.61504   2.64876   2.67200   2.67922
 Alpha virt. eigenvalues --    2.69434   2.74424   2.75672   2.77107   2.78895
 Alpha virt. eigenvalues --    2.80051   2.80446   2.81581   2.83596   2.85480
 Alpha virt. eigenvalues --    2.86497   2.87564   2.88397   2.89454   2.92338
 Alpha virt. eigenvalues --    2.94041   2.96015   2.96287   2.97173   2.98033
 Alpha virt. eigenvalues --    2.98852   3.00239   3.01071   3.02799   3.04277
 Alpha virt. eigenvalues --    3.05545   3.06526   3.08025   3.08875   3.10882
 Alpha virt. eigenvalues --    3.12465   3.13670   3.14155   3.16193   3.16490
 Alpha virt. eigenvalues --    3.17770   3.18622   3.19322   3.19660   3.20592
 Alpha virt. eigenvalues --    3.21165   3.21770   3.22484   3.23115   3.24078
 Alpha virt. eigenvalues --    3.24472   3.24691   3.25343   3.26257   3.29532
 Alpha virt. eigenvalues --    3.31424   3.32245   3.33308   3.33719   3.35402
 Alpha virt. eigenvalues --    3.36253   3.37835   3.38462   3.38571   3.39452
 Alpha virt. eigenvalues --    3.40405   3.42238   3.43320   3.45316   3.46687
[...]
    32  H   -0.000009   0.000003  -0.000000   0.000000   0.000000  -0.003421
    33  C    0.000005  -0.000027  -0.000002  -0.000000   0.000000  -0.067758
    34  H   -0.000000  -0.000006  -0.000000   0.000000   0.000000  -0.001331
    35  O    0.000000  -0.000000   0.000000  -0.000000  -0.000000   0.006803
    36  H   -0.000000  -0.000000   0.000000  -0.000000  -0.000000   0.001752
    37  C    0.000063   0.000068   0.000005  -0.000006  -0.000002   0.008060
    38  H   -0.000029   0.000031   0.000000   0.000002   0.000000   0.000587
    39  O    0.000000   0.000001  -0.000000  -0.000000   0.000000  -0.000494
    40  H    0.000000   0.000000   0.000000  -0.000000  -0.000000  -0.000366
    41  C    0.001368   0.000799  -0.000035  -0.000459   0.000066   0.003765
    42  H    0.000065   0.000078  -0.000000  -0.000079   0.000001  -0.000205
    43  H   -0.000471   0.000369  -0.000005   0.000456  -0.000001  -0.001329
    44  O    0.002592   0.000670  -0.000048  -0.011634   0.000813  -0.001408
    45  H   -0.007700  -0.004634   0.001699   0.045310  -0.005229   0.000810
              25         26         27         28         29         30
     1  C    0.000190  -0.000015  -0.000007  -0.000022   0.000003   0.000000
     2  H   -0.000074   0.000002   0.000029  -0.000105   0.000005   0.000001
     3  O    0.000002  -0.000000  -0.000000  -0.000000  -0.000000  -0.000000
     4  H    0.000000  -0.000000   0.000000  -0.000000   0.000000   0.000000
     5  C   -0.001309  -0.000444  -0.000146  -0.007013   0.000621  -0.000209
     6  H   -0.006603  -0.002094   0.001169   0.005399   0.000701  -0.000135
     7  O   -0.000026   0.000007  -0.000009   0.000121  -0.000001  -0.000000
     8  C   -0.000156   0.000002   0.000003   0.000015  -0.000038  -0.000004
     9  H   -0.000234   0.000001   0.000000   0.000001   0.000006  -0.000001
    10  O   -0.000127   0.000000   0.000000  -0.000000   0.000000   0.000000
    11  H   -0.000002  -0.000000   0.000000   0.000000   0.000002   0.000000
    12  C    0.008151  -0.000136   0.000006  -0.001162   0.000501   0.000002
    13  H   -0.011241  -0.000036   0.000015  -0.000008   0.001419  -0.000168
    14  O    0.000827   0.000003  -0.000003   0.000002  -0.000299  -0.000021
    15  H    0.002836   0.000038  -0.000012   0.000202  -0.002031   0.000436
    16  C   -0.015928   0.000473  -0.000042   0.002342   0.004697  -0.000545
    17  H   -0.000710   0.000010  -0.000000  -0.000445  -0.000005  -0.000105
    18  O   -0.050973   0.003561  -0.000025  -0.050967  -0.036176   0.001640
    19  C    0.000251  -0.000500  -0.000277  -0.006170  -0.000210  -0.000019
    20  H    0.002036  -0.001627   0.000391   0.010074  -0.000774   0.000696
    21  H   -0.000049  -0.000040  -0.000002   0.000381   0.000038  -0.000011
    22  O   -0.000006  -0.000252   0.000016   0.000019   0.000000  -0.000000
    23  H   -0.000001   0.000030   0.000002  -0.000187  -0.000002   0.000000
    24  C    0.384512  -0.084928  -0.012351   0.222953   0.179650  -0.050958
    25  H    0.643928   0.003190   0.008971  -0.052782  -0.076049   0.014082
    26  C    0.003190   5.506217   0.384820   0.197709  -0.008978   0.001778
    27  H    0.008971   0.384820   0.561676  -0.038899   0.002049   0.000279
    28  O   -0.052782   0.197709  -0.038899   8.216591  -0.036431   0.003220
    29  C   -0.076049  -0.008978   0.002049  -0.036431   5.321689   0.394071
    30  H    0.014082   0.001778   0.000279   0.003220   0.394071   0.537584
    31  O    0.011466   0.000194  -0.000108   0.001948   0.233414  -0.033171
    32  H   -0.001730   0.000008   0.000026   0.000075  -0.036890  -0.010360
    33  C   -0.000632  -0.026101  -0.014018  -0.008806   0.211801  -0.045748
    34  H    0.006124  -0.003044   0.005012   0.000682  -0.045519   0.009684
    35  O   -0.000126   0.002921  -0.000093  -0.000071  -0.042217   0.004822
    36  H   -0.000072  -0.000900  -0.000070  -0.000038  -0.010948  -0.001432
    37  C   -0.006575   0.105640  -0.059467  -0.034903  -0.068189  -0.002291
    38  H    0.000043  -0.045127   0.010632   0.002906   0.001087   0.006204
    39  O   -0.000160  -0.046773   0.009000   0.001452   0.006893   0.000014
    40  H   -0.000022   0.010908  -0.000826  -0.000253   0.001569  -0.000047
    41  C    0.000836   0.249286  -0.030654  -0.039357  -0.001474  -0.000103
    42  H    0.000085  -0.057251  -0.006627   0.004542  -0.000022   0.000014
    43  H   -0.000016  -0.063430   0.011801  -0.002228  -0.000057  -0.000019
    44  O   -0.000422  -0.060511   0.006205   0.000060  -0.000038   0.000004
    45  H    0.000043   0.002695  -0.001568   0.003764   0.000048  -0.000003
              31         32         33         34         35         36
     1  C   -0.000000  -0.000003  -0.000000   0.000000   0.000000   0.000000
     2  H    0.000000  -0.000000   0.000001   0.000001  -0.000000   0.000000
     3  O    0.000000   0.000000   0.000000  -0.000000  -0.000000   0.000000
     4  H   -0.000000   0.000000   0.000000   0.000000  -0.000000   0.000000
     5  C   -0.000000   0.000171   0.000025  -0.000018   0.000000   0.000000
     6  H   -0.000036   0.000007  -0.000236  -0.000045   0.000001  -0.000000
     7  O   -0.000000  -0.000001  -0.000000  -0.000000   0.000000  -0.000000
     8  C   -0.000004   0.000029  -0.000000  -0.000002  -0.000000   0.000000
     9  H    0.000000   0.000004   0.000000   0.000000   0.000000   0.000000
    10  O    0.000000  -0.000000   0.000000   0.000000  -0.000000  -0.000000
    11  H   -0.000000  -0.000005   0.000000   0.000000  -0.000000   0.000000
    12  C   -0.000787   0.000207  -0.000032  -0.000045  -0.000000   0.000000
    13  H   -0.000461   0.000103   0.000049  -0.000129   0.000000   0.000001
    14  O   -0.000338   0.000544  -0.000001  -0.000003   0.000000   0.000000
    15  H    0.011607   0.000746   0.000104   0.000113  -0.000003  -0.000020
    16  C   -0.000739  -0.000348  -0.000126   0.000072   0.000001   0.000001
    17  H    0.000013  -0.000037   0.000008  -0.000001  -0.000000   0.000000
    18  O   -0.001261   0.008555   0.003588  -0.000149  -0.000016  -0.000008
    19  C   -0.000001  -0.000009   0.000005  -0.000000   0.000000  -0.000000
    20  H    0.000008   0.000003  -0.000027  -0.000006  -0.000000  -0.000000
    21  H   -0.000000  -0.000000  -0.000002  -0.000000   0.000000   0.000000
    22  O    0.000000   0.000000  -0.000000   0.000000  -0.000000  -0.000000
    23  H    0.000000   0.000000   0.000000   0.000000  -0.000000  -0.000000
    24  C   -0.050529  -0.003421  -0.067758  -0.001331   0.006803   0.001752
    25  H    0.011466  -0.001730  -0.000632   0.006124  -0.000126  -0.000072
    26  C    0.000194   0.000008  -0.026101  -0.003044   0.002921  -0.000900
    27  H   -0.000108   0.000026  -0.014018   0.005012  -0.000093  -0.000070
    28  O    0.001948   0.000075  -0.008806   0.000682  -0.000071  -0.000038
    29  C    0.233414  -0.036890   0.211801  -0.045519  -0.042217  -0.010948
    30  H   -0.033171  -0.010360  -0.045748   0.009684   0.004822  -0.001432
    31  O    7.976667   0.319426  -0.044798   0.000276  -0.001465   0.014562
    32  H    0.319426   0.441062   0.009087  -0.000787  -0.000364  -0.000594
    33  C   -0.044798   0.009087   5.294183   0.379305   0.243742  -0.041559
    34  H    0.000276  -0.000787   0.379305   0.565610  -0.035970  -0.005229
    35  O   -0.001465  -0.000364   0.243742  -0.035970   7.966571   0.324039
    36  H    0.014562  -0.000594  -0.041559  -0.005229   0.324039   0.436388
    37  C    0.003859  -0.000642   0.225005  -0.050343  -0.049319   0.012618
    38  H   -0.000218  -0.000021  -0.056759   0.011469   0.003314  -0.000788
    39  O   -0.000016   0.000006  -0.032912   0.007683  -0.003703  -0.000508
    40  H   -0.000020   0.000006  -0.005134  -0.001599   0.015786  -0.000907
    41  C    0.000007  -0.000002   0.005375  -0.000733  -0.000051   0.000019
    42  H    0.000000  -0.000000   0.000190   0.000021  -0.000002   0.000002
    43  H    0.000001   0.000000  -0.000559  -0.000048  -0.000002  -0.000003
    44  O   -0.000000   0.000000  -0.000172   0.000002   0.000000  -0.000000
    45  H   -0.000000  -0.000000   0.000077   0.000003  -0.000000   0.000000
              37         38         39         40         41         42
     1  C   -0.000000   0.000000  -0.000000  -0.000000   0.000001   0.000000
     2  H   -0.000003   0.000000   0.000000  -0.000000   0.000004  -0.000001
     3  O   -0.000000   0.000000  -0.000000  -0.000000  -0.000000  -0.000000
     4  H   -0.000000  -0.000000   0.000000   0.000000   0.000000  -0.000000
     5  C    0.000001  -0.000005  -0.000000  -0.000000  -0.000187  -0.000020
     6  H    0.001469   0.000021  -0.000008   0.000002  -0.001509   0.000155
     7  O    0.000000  -0.000000  -0.000000   0.000000   0.000000   0.000000
     8  C    0.000000   0.000000   0.000000   0.000000   0.000000   0.000000
     9  H   -0.000000  -0.000000   0.000000  -0.000000  -0.000000  -0.000000
    10  O   -0.000000  -0.000000   0.000000  -0.000000  -0.000000  -0.000000
    11  H    0.000000  -0.000000  -0.000000   0.000000  -0.000000  -0.000000
    12  C    0.000014  -0.000000   0.000000   0.000000  -0.000003   0.000001
    13  H   -0.000016  -0.000003   0.000001  -0.000000  -0.000013  -0.000001
    14  O   -0.000000  -0.000000  -0.000000   0.000000   0.000000  -0.000000
    15  H   -0.000002   0.000001   0.000000   0.000000   0.000001  -0.000000
    16  C   -0.000117   0.000006  -0.000000  -0.000000   0.000069  -0.000003
    17  H   -0.000001  -0.000001   0.000000  -0.000000  -0.000002  -0.000000
    18  O   -0.000553  -0.000067   0.000000   0.000000  -0.000162   0.000005
    19  C    0.000063  -0.000029   0.000000   0.000000   0.001368   0.000065
    20  H    0.000068   0.000031   0.000001   0.000000   0.000799   0.000078
    21  H    0.000005   0.000000  -0.000000   0.000000  -0.000035  -0.000000
    22  O   -0.000006   0.000002  -0.000000  -0.000000  -0.000459  -0.000079
    23  H   -0.000002   0.000000   0.000000  -0.000000   0.000066   0.000001
    24  C    0.008060   0.000587  -0.000494  -0.000366   0.003765  -0.000205
    25  H   -0.006575   0.000043  -0.000160  -0.000022   0.000836   0.000085
    26  C    0.105640  -0.045127  -0.046773   0.010908   0.249286  -0.057251
    27  H   -0.059467   0.010632   0.009000  -0.000826  -0.030654  -0.006627
    28  O   -0.034903   0.002906   0.001452  -0.000253  -0.039357   0.004542
    29  C   -0.068189   0.001087   0.006893   0.001569  -0.001474  -0.000022
    30  H   -0.002291   0.006204   0.000014  -0.000047  -0.000103   0.000014
    31  O    0.003859  -0.000218  -0.000016  -0.000020   0.000007   0.000000
    32  H   -0.000642  -0.000021   0.000006   0.000006  -0.000002  -0.000000
    33  C    0.225005  -0.056759  -0.032912  -0.005134   0.005375   0.000190
    34  H   -0.050343   0.011469   0.007683  -0.001599  -0.000733   0.000021
    35  O   -0.049319   0.003314  -0.003703   0.015786  -0.000051  -0.000002
    36  H    0.012618  -0.000788  -0.000508  -0.000907   0.000019   0.000002
    37  C    5.343470   0.380018   0.222907  -0.045929  -0.033931   0.001188
    38  H    0.380018   0.573845  -0.033113  -0.004824  -0.009785   0.000079
    39  O    0.222907  -0.033113   7.959754   0.320382  -0.002326   0.012109
    40  H   -0.045929  -0.004824   0.320382   0.440148  -0.000170  -0.000189
    41  C   -0.033931  -0.009785  -0.002326  -0.000170   4.824531   0.410214
    42  H    0.001188   0.000079   0.012109  -0.000189   0.410214   0.542632
    43  H   -0.001418   0.005784  -0.000312  -0.000095   0.408820  -0.034633
    44  O    0.005350  -0.000065   0.000010   0.000011   0.292448  -0.031132
    45  H   -0.001143  -0.000070  -0.000004  -0.000002  -0.042754   0.004844
              43         44         45
     1  C   -0.000000  -0.000005   0.000014
     2  H   -0.000001  -0.000103   0.000005
     3  O   -0.000000  -0.000000   0.000000
     4  H    0.000000  -0.000000  -0.000000
     5  C   -0.000029  -0.003260   0.000041
     6  H    0.000937   0.017236   0.000590
     7  O    0.000000   0.000012  -0.000350
     8  C    0.000000   0.000001  -0.000020
     9  H   -0.000000  -0.000000  -0.000001
    10  O   -0.000000  -0.000000   0.000000
    11  H    0.000000   0.000000  -0.000000
    12  C   -0.000001  -0.000002   0.000020
    13  H   -0.000000  -0.000019  -0.000001
    14  O   -0.000000  -0.000000  -0.000000
    15  H    0.000000   0.000000  -0.000000
    16  C    0.000001   0.000076  -0.000054
    17  H    0.000001  -0.000001   0.000021
    18  O   -0.000015   0.000003   0.000030
    19  C   -0.000471   0.002592  -0.007700
    20  H    0.000369   0.000670  -0.004634
    21  H   -0.000005  -0.000048   0.001699
    22  O    0.000456  -0.011634   0.045310
    23  H   -0.000001   0.000813  -0.005229
    24  C   -0.001329  -0.001408   0.000810
    25  H   -0.000016  -0.000422   0.000043
    26  C   -0.063430  -0.060511   0.002695
    27  H    0.011801   0.006205  -0.001568
    28  O   -0.002228   0.000060   0.003764
    29  C   -0.000057  -0.000038   0.000048
    30  H   -0.000019   0.000004  -0.000003
    31  O    0.000001  -0.000000  -0.000000
    32  H    0.000000   0.000000  -0.000000
    33  C   -0.000559  -0.000172   0.000077
    34  H   -0.000048   0.000002   0.000003
    35  O   -0.000002   0.000000  -0.000000
    36  H   -0.000003  -0.000000   0.000000
    37  C   -0.001418   0.005350  -0.001143
    38  H    0.005784  -0.000065  -0.000070
    39  O   -0.000312   0.000010  -0.000004
    40  H   -0.000095   0.000011  -0.000002
    41  C    0.408820   0.292448  -0.042754
    42  H   -0.034633  -0.031132   0.004844
    43  H    0.591748  -0.033606  -0.011096
    44  O   -0.033606   7.923753   0.321504
    45  H   -0.011096   0.321504   0.414534
 Mulliken charges:
               1
     1  C    0.227178
     2  H    0.153499
     3  O   -0.369321
     4  H    0.248892
     5  C   -0.086108
     6  H    0.157907
     7  O   -0.397605
     8  C    0.009966
     9  H    0.139053
    10  O   -0.405392
    11  H    0.267881
    12  C   -0.055894
    13  H    0.159665
    14  O   -0.425100
    15  H    0.259837
    16  C    0.011423
    17  H    0.180350
    18  O   -0.401278
    19  C   -0.018570
    20  H    0.164701
    21  H    0.143808
    22  O   -0.434608
    23  H    0.277727
    24  C    0.217528
    25  H    0.138452
    26  C   -0.067306
    27  H    0.163102
    28  O   -0.394612
    29  C    0.006086
    30  H    0.170817
    31  O   -0.439496
    32  H    0.275146
    33  C   -0.027163
    34  H    0.158943
    35  O   -0.434597
    36  H    0.273694
    37  C    0.045114
    38  H    0.154845
    39  O   -0.419884
    40  H    0.271571
    41  C   -0.033901
    42  H    0.153940
    43  H    0.129458
    44  O   -0.428322
    45  H    0.278577
 Sum of Mulliken charges =  -0.00000
 Mulliken charges with hydrogens summed into heavy atoms:
               1
     1  C    0.380676
     3  O   -0.120429
     5  C    0.071799
     7  O   -0.397605
     8  C    0.149019
    10  O   -0.137511
    12  C    0.103771
    14  O   -0.165263
    16  C    0.191772
    18  O   -0.401278
    19  C    0.289939
    22  O   -0.156882
    24  C    0.355980
    26  C    0.095796
    28  O   -0.394612
    29  C    0.176904
    31  O   -0.164349
    33  C    0.131781
    35  O   -0.160904
    37  C    0.199959
    39  O   -0.148313
    41  C    0.249497
    44  O   -0.149745
 Electronic spatial extent (au):  <R**2>=           7867.4712
 Charge=             -0.0000 electrons
 Dipole moment (field-independent basis, Debye):
    X=             -0.9486    Y=             -4.3661    Z=              3.2180  Tot=              5.5062
 Quadrupole moment (field-independent basis, Debye-Ang):
   XX=           -138.8591   YY=           -140.7903   ZZ=           -139.7912
   XY=              5.4585   XZ=              7.4602   YZ=              2.0616
 Traceless Quadrupole moment (field-independent basis, Debye-Ang):
   XX=              0.9544   YY=             -0.9768   ZZ=              0.0223
   XY=              5.4585   XZ=              7.4602   YZ=              2.0616
 Octapole moment (field-independent basis, Debye-Ang**2):
  XXX=            -13.8455  YYY=            -64.2075  ZZZ=             15.0534  XYY=             -3.8664
  XXY=            -16.8342  XXZ=             56.8606  XZZ=            -11.0867  YZZ=            -17.4353
  YYZ=             15.2145  XYZ=             -3.1978
 Hexadecapole moment (field-independent basis, Debye-Ang**3):
 XXXX=          -6036.6416 YYYY=          -2604.1995 ZZZZ=           -791.0035 XXXY=             36.0888
 XXXZ=            299.9431 YYYX=            120.9826 YYYZ=              4.2177 ZZZX=              8.0537
 ZZZY=            -10.9216 XXYY=          -1398.4628 XXZZ=          -1251.8204 YYZZ=           -569.0066
 XXYZ=             43.8610 YYXZ=            -46.2075 ZZXY=             38.0848
 N-N= 2.365534994399D+03 E-N=-7.778681448879D+03  KE= 1.294084082102D+03
 No NMR shielding tensors so no spin-rotation constants.
 Leave Link  601 at Thu Mar 16 20:14:00 2023, MaxMem=   262144000 cpu:               1.9 elap:               0.3
 (Enter /dragofs/sw/campus/0.2/software/gaussian/16.gaussian/gaussian/g16_legacy/l9999.exe)
 1\1\GINC-DRAGO31030089\FOpt\RM062X\6-311G(d,p)\C12H22O11\JRAMOS\16-Mar
 -2023\0\\#p opt M062X/6-311g(d,p)\\Optimization 03-DIHEDRAL_PHI_PSI_14
 b/dimer14b_000_007.log\\0,1\C,3.5180586891,0.0599822846,-0.7291129901\
 H,2.9934472308,0.3865429701,-1.6356557276\O,4.8495292729,0.3526018583,
 -0.9174573504\H,5.3500492294,-0.0384281049,-0.1945095441\C,1.646269513
 2,0.6868173844,0.6176157857\H,1.1089802384,1.0152213044,-0.2832691795\
 O,3.0478617814,0.789806782,0.3967001531\C,3.2554082002,-1.4250059025,-
 0.4818894858\H,3.8116517696,-1.7215802045,0.4228870554\O,3.6762137547,
 -2.1552957798,-1.6026506506\H,3.3323593763,-3.0481749983,-1.4914205009
 \C,1.7723466406,-1.6402682919,-0.2280812442\H,1.2541004799,-1.34742234
 8,-1.1523354379\O,1.57847635,-3.0178515551,0.0178605308\H,0.6307795049
 ,-3.1715231565,0.0876011078\C,1.3057474184,-0.7732246144,0.9326307515\
 H,1.8428679011,-1.078892285,1.8347328733\O,-0.0678602931,-1.0072117586
 ,1.2474267512\C,1.3187101114,1.649128345,1.7403582585\H,0.3157842504,1
 .4620652636,2.1148124704\H,2.0460642742,1.5052994181,2.5476496047\O,1.
 3421294237,2.9862958636,1.2694920638\H,2.2095292682,3.1350113663,0.877
 3249456\C,-1.0079869348,-0.5892200684,0.3148141713\H,-0.6979951063,-0.
 8463671928,-0.7114182407\C,-2.0579921377,1.3114582771,-0.590062873\H,-
 1.6973775903,1.0047794262,-1.583268693\O,-1.1841253563,0.8007750194,0.
 4134225817\C,-2.3233147129,-1.2802748724,0.6296520342\H,-2.6193783636,
 -1.0012099351,1.6478818472\O,-2.2149801929,-2.6859419911,0.4921429218\
 H,-1.7704079466,-3.0179367721,1.2770366372\C,-3.3698061593,-0.79261349
 24,-0.35554543\H,-3.0761296332,-1.119005081,-1.3649298949\O,-4.6571094
 8,-1.2786303403,-0.041523907\H,-4.6050520831,-2.2394377044,-0.02655893
 67\C,-3.4481569401,0.7288849557,-0.3587502478\H,-3.811363984,1.0560523
 097,0.6268354\O,-4.2968662257,1.1787793265,-1.3873170193\H,-5.12457832
 59,0.6951475152,-1.2967347105\C,-1.9810250708,2.8236235709,-0.50411551
 56\H,-2.6724966076,3.2451095317,-1.2350609413\H,-2.3026758579,3.135602
 4084,0.4981668559\O,-0.6858232416,3.2768461399,-0.8081858242\H,-0.1155
 874352,3.1760921283,-0.0322604562\\Version=EM64L-G16RevA.03\State=1-A\
 HF=-1297.8316356\RMSD=6.624e-09\RMSF=1.033e-05\Dipole=-0.5457336,-1.71
 01083,1.2126729\Quadrupole=1.4010772,-1.5513062,0.1502289,3.6691198,5.
 7882617,0.9670864\PG=C01 [X(C12H22O11)]\\@


 THE WHOLE OF SCIENCE IS NOTHING MORE THAN A REFINEMENT OF EVERYDAY THINKING.
                                                              -- A. EINSTEIN
 Job cpu time:       0 days 10 hours 35 minutes 57.9 seconds.
 Elapsed time:       0 days  1 hours 20 minutes  3.2 seconds.
 File lengths (MBytes):  RWF=    189 Int=      0 D2E=      0 Chk=     24 Scr=      1
 Normal termination of Gaussian 16 at Thu Mar 16 20:14:00 2023.
