 Entering Gaussian System, Link 0=/dragofs/sw/campus/0.2/software/gaussian/16.gaussian/gaussian/g16_legacy/g16
 Input=dimer14b_000_003_opt.com
 Output=dimer14b_000_003_opt.log
 Initial command:
 /dragofs/sw/campus/0.2/software/gaussian/16.gaussian/gaussian/g16_legacy/l1.exe "/tmp/jramos/82044/Gau-27961.inp" -scrdir="/tmp/jramos/82044/"
 Entering Link 1 = /dragofs/sw/campus/0.2/software/gaussian/16.gaussian/gaussian/g16_legacy/l1.exe PID=     27962.
  
 Copyright (c) 1988,1990,1992,1993,1995,1998,2003,2009,2016,
            Gaussian, Inc.  All Rights Reserved.
  
 This is part of the Gaussian(R) 16 program.  It is based on
 the Gaussian(R) 09 system (copyright 2009, Gaussian, Inc.),
 the Gaussian(R) 03 system (copyright 2003, Gaussian, Inc.),
 the Gaussian(R) 98 system (copyright 1998, Gaussian, Inc.),
 the Gaussian(R) 94 system (copyright 1995, Gaussian, Inc.),
 the Gaussian 92(TM) system (copyright 1992, Gaussian, Inc.),
 the Gaussian 90(TM) system (copyright 1990, Gaussian, Inc.),
 the Gaussian 88(TM) system (copyright 1988, Gaussian, Inc.),
 the Gaussian 86(TM) system (copyright 1986, Carnegie Mellon
 University), and the Gaussian 82(TM) system (copyright 1983,
 Carnegie Mellon University). Gaussian is a federally registered
 trademark of Gaussian, Inc.
  
 This software contains proprietary and confidential information,
 including trade secrets, belonging to Gaussian, Inc.
  
 This software is provided under written license and may be
 used, copied, transmitted, or stored only in accord with that
 written license.
  
 The following legend is applicable only to US Government
 contracts under FAR:
  
                    RESTRICTED RIGHTS LEGEND
  
 Use, reproduction and disclosure by the US Government is
 subject to restrictions as set forth in subparagraphs (a)
 and (c) of the Commercial Computer Software - Restricted
 Rights clause in FAR 52.227-19.
  
 Gaussian, Inc.
 340 Quinnipiac St., Bldg. 40, Wallingford CT 06492
  
  
 ---------------------------------------------------------------
 Warning -- This program may not be used in any manner that
 competes with the business of Gaussian, Inc. or will provide
 assistance to any competitor of Gaussian, Inc.  The licensee
 of this program is prohibited from giving any competitor of
 Gaussian, Inc. access to this program.  By using this program,
 the user acknowledges that Gaussian, Inc. is engaged in the
 business of creating and licensing software in the field of
 computational chemistry and represents and warrants to the
 licensee that it is not a competitor of Gaussian, Inc. and that
 it will not use this program in any manner prohibited above.
 ---------------------------------------------------------------
  

 Cite this work as:
 Gaussian 16, Revision A.03,
 M. J. Frisch, G. W. Trucks, H. B. Schlegel, G. E. Scuseria, 
 M. A. Robb, J. R. Cheeseman, G. Scalmani, V. Barone, 
 G. A. Petersson, H. Nakatsuji, X. Li, M. Caricato, A. V. Marenich, 
 J. Bloino, B. G. Janesko, R. Gomperts, B. Mennucci, H. P. Hratchian, 
 J. V. Ortiz, A. F. Izmaylov, J. L. Sonnenberg, D. Williams-Young, 
 F. Ding, F. Lipparini, F. Egidi, J. Goings, B. Peng, A. Petrone, 
 T. Henderson, D. Ranasinghe, V. G. Zakrzewski, J. Gao, N. Rega, 
 G. Zheng, W. Liang, M. Hada, M. Ehara, K. Toyota, R. Fukuda, 
 J. Hasegawa, M. Ishida, T. Nakajima, Y. Honda, O. Kitao, H. Nakai, 
 T. Vreven, K. Throssell, J. A. Montgomery, Jr., J. E. Peralta, 
 F. Ogliaro, M. J. Bearpark, J. J. Heyd, E. N. Brothers, K. N. Kudin, 
 V. N. Staroverov, T. A. Keith, R. Kobayashi, J. Normand, 
 K. Raghavachari, A. P. Rendell, J. C. Burant, S. S. Iyengar, 
 J. Tomasi, M. Cossi, J. M. Millam, M. Klene, C. Adamo, R. Cammi, 
 J. W. Ochterski, R. L. Martin, K. Morokuma, O. Farkas, 
 J. B. Foresman, and D. J. Fox, Gaussian, Inc., Wallingford CT, 2016.
 
 ******************************************
 Gaussian 16:  EM64L-G16RevA.03 25-Dec-2016
                16-Mar-2023 
 ******************************************
 %chk=dimer14b_000_003_opt.chk
 %mem=2000MB
 %nproc=8
 Will use up to    8 processors via shared memory.
 ------------------------
 #p opt M062X/6-311g(d,p)
 ------------------------
 1/18=20,19=15,26=3,38=1/1,3;
 2/9=110,12=2,17=6,18=5,40=1/2;
 3/5=4,6=6,7=101,11=2,25=1,30=1,71=1,74=-55/1,2,3;
 4//1;
 5/5=2,38=5/2;
 6/7=2,8=2,9=2,10=2,28=1/1;
 7//1,2,3,16;
 1/18=20,19=15,26=3/3(2);
 2/9=110/2;
 99//99;
 2/9=110/2;
 3/5=4,6=6,7=101,11=2,25=1,30=1,71=1,74=-55/1,2,3;
 4/5=5,16=3,69=1/1;
 5/5=2,38=5/2;
 7//1,2,3,16;
 1/18=20,19=15,26=3/3(-5);
 2/9=110/2;
 6/7=2,8=2,9=2,10=2,19=2,28=1/1;
 99/9=1/99;
 Leave Link    1 at Thu Mar 16 18:04:46 2023, MaxMem=   262144000 cpu:               0.2 elap:               0.0
 (Enter /dragofs/sw/campus/0.2/software/gaussian/16.gaussian/gaussian/g16_legacy/l101.exe)
 ---------------------------------------------------------
 Optimization 03-DIHEDRAL_PHI_PSI_14b/dimer14b_000_003.log
 ---------------------------------------------------------
 Symbolic Z-matrix:
 Charge =  0 Multiplicity = 1
 C                    -3.96061   0.25189   0.63379 
 H                    -3.85971  -0.33511   1.55492 
 O                    -5.16667   0.90814   0.71152 
 H                    -5.36667   1.28309  -0.15189 
 C                    -1.58919   0.73383   0.68533 
 H                    -1.47369   0.22545   1.65482 
 O                    -2.92224   1.21957   0.55507 
 C                    -3.82009  -0.64093  -0.58822 
 H                    -3.90478  -0.00394  -1.48354 
 O                    -4.81394  -1.63047  -0.56588 
 H                    -4.57316  -2.27534  -1.23967 
 C                    -2.44173  -1.26897  -0.56094 
 H                    -2.38498  -1.90392   0.33662 
 O                    -2.32861  -2.06054  -1.72488 
 H                    -1.44424  -2.43919  -1.73247 
 C                    -1.31484  -0.2485   -0.46567 
 H                    -1.24264   0.309    -1.40716 
 O                    -0.15715  -1.08253  -0.33214 
 C                    -0.77561   2.02876   0.6733 
 H                     0.29219   1.86447   0.79315 
 H                    -0.93575   2.50752  -0.30343 
 O                    -1.1836    2.85771   1.72994 
 H                    -2.14158   2.92963   1.66146 
 C                     1.02428  -0.54058   0.15109 
 H                     0.87261  -0.06316   1.13081 
 C                     2.72978   1.00994  -0.35117 
 H                     2.57681   1.47717   0.63332 
 O                     1.51425   0.39189  -0.78133 
 C                     2.01328  -1.68851   0.30096 
 H                     2.1109   -2.17714  -0.67744 
 O                     1.6081   -2.59998   1.29815 
 H                     0.75834  -2.96513   1.03517 
 C                     3.35888  -1.1332    0.72586 
 H                     3.24979  -0.68386   1.72434 
 O                     4.35727  -2.1302    0.7447 
 H                     4.05326  -2.8308    1.33052 
 C                     3.8163   -0.05077  -0.23554 
 H                     3.97499  -0.50845  -1.22318 
 O                     4.9885    0.57412   0.22844 
 H                     5.60919  -0.12815   0.45005 
 C                     3.03908   2.09109  -1.36552 
 H                     3.93134   2.6312   -1.05145 
 H                     3.2379    1.61772  -2.33653 
 O                     1.97812   3.0146   -1.44576 
 H                     1.19038   2.50609  -1.66067 
 
 ITRead=  0  0  0  0  0  0  0  0  0  0  0  0  0  0  0  0  0  0  0  0
 ITRead=  0  0  0  0  0  0  0  0  0  0  0  0  0  0  0  0  0  0  0  0
 ITRead=  0  0  0  0  0
 MicOpt= -1 -1 -1 -1 -1 -1 -1 -1 -1 -1 -1 -1 -1 -1 -1 -1 -1 -1 -1 -1
 MicOpt= -1 -1 -1 -1 -1 -1 -1 -1 -1 -1 -1 -1 -1 -1 -1 -1 -1 -1 -1 -1
 MicOpt= -1 -1 -1 -1 -1
 NAtoms=     45 NQM=       45 NQMF=       0 NMMI=      0 NMMIF=      0
                NMic=       0 NMicF=      0.
                    Isotopes and Nuclear Properties:
 (Nuclear quadrupole moments (NQMom) in fm**2, nuclear magnetic moments (NMagM)
  in nuclear magnetons)

  Atom         1           2           3           4           5           6           7           8           9          10
 IAtWgt=          12           1          16           1          12           1          16          12           1          16
 AtmWgt=  12.0000000   1.0078250  15.9949146   1.0078250  12.0000000   1.0078250  15.9949146  12.0000000   1.0078250  15.9949146
 NucSpn=           0           1           0           1           0           1           0           0           1           0
 AtZEff=  -0.0000000  -0.0000000  -0.0000000  -0.0000000  -0.0000000  -0.0000000  -0.0000000  -0.0000000  -0.0000000  -0.0000000
 NQMom=    0.0000000   0.0000000   0.0000000   0.0000000   0.0000000   0.0000000   0.0000000   0.0000000   0.0000000   0.0000000
 NMagM=    0.0000000   2.7928460   0.0000000   2.7928460   0.0000000   2.7928460   0.0000000   0.0000000   2.7928460   0.0000000
 AtZNuc=   6.0000000   1.0000000   8.0000000   1.0000000   6.0000000   1.0000000   8.0000000   6.0000000   1.0000000   8.0000000

  Atom        11          12          13          14          15          16          17          18          19          20
 IAtWgt=           1          12           1          16           1          12           1          16          12           1
 AtmWgt=   1.0078250  12.0000000   1.0078250  15.9949146   1.0078250  12.0000000   1.0078250  15.9949146  12.0000000   1.0078250
 NucSpn=           1           0           1           0           1           0           1           0           0           1
 AtZEff=  -0.0000000  -0.0000000  -0.0000000  -0.0000000  -0.0000000  -0.0000000  -0.0000000  -0.0000000  -0.0000000  -0.0000000
 NQMom=    0.0000000   0.0000000   0.0000000   0.0000000   0.0000000   0.0000000   0.0000000   0.0000000   0.0000000   0.0000000
 NMagM=    2.7928460   0.0000000   2.7928460   0.0000000   2.7928460   0.0000000   2.7928460   0.0000000   0.0000000   2.7928460
 AtZNuc=   1.0000000   6.0000000   1.0000000   8.0000000   1.0000000   6.0000000   1.0000000   8.0000000   6.0000000   1.0000000

  Atom        21          22          23          24          25          26          27          28          29          30
 IAtWgt=           1          16           1          12           1          12           1          16          12           1
 AtmWgt=   1.0078250  15.9949146   1.0078250  12.0000000   1.0078250  12.0000000   1.0078250  15.9949146  12.0000000   1.0078250
 NucSpn=           1           0           1           0           1           0           1           0           0           1
 AtZEff=  -0.0000000  -0.0000000  -0.0000000  -0.0000000  -0.0000000  -0.0000000  -0.0000000  -0.0000000  -0.0000000  -0.0000000
 NQMom=    0.0000000   0.0000000   0.0000000   0.0000000   0.0000000   0.0000000   0.0000000   0.0000000   0.0000000   0.0000000
 NMagM=    2.7928460   0.0000000   2.7928460   0.0000000   2.7928460   0.0000000   2.7928460   0.0000000   0.0000000   2.7928460
 AtZNuc=   1.0000000   8.0000000   1.0000000   6.0000000   1.0000000   6.0000000   1.0000000   8.0000000   6.0000000   1.0000000

  Atom        31          32          33          34          35          36          37          38          39          40
 IAtWgt=          16           1          12           1          16           1          12           1          16           1
 AtmWgt=  15.9949146   1.0078250  12.0000000   1.0078250  15.9949146   1.0078250  12.0000000   1.0078250  15.9949146   1.0078250
 NucSpn=           0           1           0           1           0           1           0           1           0           1
 AtZEff=  -0.0000000  -0.0000000  -0.0000000  -0.0000000  -0.0000000  -0.0000000  -0.0000000  -0.0000000  -0.0000000  -0.0000000
 NQMom=    0.0000000   0.0000000   0.0000000   0.0000000   0.0000000   0.0000000   0.0000000   0.0000000   0.0000000   0.0000000
 NMagM=    0.0000000   2.7928460   0.0000000   2.7928460   0.0000000   2.7928460   0.0000000   2.7928460   0.0000000   2.7928460
 AtZNuc=   8.0000000   1.0000000   6.0000000   1.0000000   8.0000000   1.0000000   6.0000000   1.0000000   8.0000000   1.0000000

  Atom        41          42          43          44          45
 IAtWgt=          12           1           1          16           1
 AtmWgt=  12.0000000   1.0078250   1.0078250  15.9949146   1.0078250
 NucSpn=           0           1           1           0           1
 AtZEff=  -0.0000000  -0.0000000  -0.0000000  -0.0000000  -0.0000000
 NQMom=    0.0000000   0.0000000   0.0000000   0.0000000   0.0000000
 NMagM=    0.0000000   2.7928460   2.7928460   0.0000000   2.7928460
 AtZNuc=   6.0000000   1.0000000   1.0000000   8.0000000   1.0000000
 Leave Link  101 at Thu Mar 16 18:04:46 2023, MaxMem=   262144000 cpu:               1.0 elap:               0.1
 (Enter /dragofs/sw/campus/0.2/software/gaussian/16.gaussian/gaussian/g16_legacy/l103.exe)

 GradGradGradGradGradGradGradGradGradGradGradGradGradGradGradGradGradGrad
 Berny optimization.
 Initialization pass.
                           ----------------------------
                           !    Initial Parameters    !
                           ! (Angstroms and Degrees)  !
 --------------------------                            --------------------------
 ! Name  Definition              Value          Derivative Info.                !
 --------------------------------------------------------------------------------
 ! R1    R(1,2)                  1.0969         estimate D2E/DX2                !
 ! R2    R(1,3)                  1.3752         estimate D2E/DX2                !
 ! R3    R(1,7)                  1.4216         estimate D2E/DX2                !
 ! R4    R(1,8)                  1.5199         estimate D2E/DX2                !
 ! R5    R(3,4)                  0.9623         estimate D2E/DX2                !
 ! R6    R(5,6)                  1.1008         estimate D2E/DX2                !
 ! R7    R(5,7)                  1.4248         estimate D2E/DX2                !
 ! R8    R(5,16)                 1.5379         estimate D2E/DX2                !
 ! R9    R(5,19)                 1.5293         estimate D2E/DX2                !
 ! R10   R(8,9)                  1.102          estimate D2E/DX2                !
 ! R11   R(8,10)                 1.4027         estimate D2E/DX2                !
 ! R12   R(8,12)                 1.5149         estimate D2E/DX2                !
 ! R13   R(10,11)                0.9632         estimate D2E/DX2                !
 ! R14   R(12,13)                1.1009         estimate D2E/DX2                !
 ! R15   R(12,14)                1.4121         estimate D2E/DX2                !
 ! R16   R(12,16)                1.5233         estimate D2E/DX2                !
 ! R17   R(14,15)                0.9621         estimate D2E/DX2                !
 ! R18   R(16,17)                1.0965         estimate D2E/DX2                !
 ! R19   R(16,18)                1.4331         estimate D2E/DX2                !
 ! R20   R(18,24)                1.3867         estimate D2E/DX2                !
 ! R21   R(19,20)                1.087          estimate D2E/DX2                !
 ! R22   R(19,21)                1.0995         estimate D2E/DX2                !
 ! R23   R(19,22)                1.4036         estimate D2E/DX2                !
 ! R24   R(22,23)                0.9631         estimate D2E/DX2                !
 ! R25   R(24,25)                1.1004         estimate D2E/DX2                !
 ! R26   R(24,28)                1.4068         estimate D2E/DX2                !
 ! R27   R(24,29)                1.5226         estimate D2E/DX2                !
 ! R28   R(26,27)                1.1004         estimate D2E/DX2                !
 ! R29   R(26,28)                1.4299         estimate D2E/DX2                !
 ! R30   R(26,37)                1.5228         estimate D2E/DX2                !
 ! R31   R(26,41)                1.5144         estimate D2E/DX2                !
 ! R32   R(29,30)                1.098          estimate D2E/DX2                !
 ! R33   R(29,31)                1.4104         estimate D2E/DX2                !
 ! R34   R(29,33)                1.5164         estimate D2E/DX2                !
 ! R35   R(31,32)                0.9616         estimate D2E/DX2                !
 ! R36   R(33,34)                1.1004         estimate D2E/DX2                !
 ! R37   R(33,35)                1.4111         estimate D2E/DX2                !
 ! R38   R(33,37)                1.5183         estimate D2E/DX2                !
 ! R39   R(35,36)                0.9625         estimate D2E/DX2                !
 ! R40   R(37,38)                1.1            estimate D2E/DX2                !
 ! R41   R(37,39)                1.4071         estimate D2E/DX2                !
 ! R42   R(39,40)                0.9631         estimate D2E/DX2                !
 ! R43   R(41,42)                1.0893         estimate D2E/DX2                !
 ! R44   R(41,43)                1.0984         estimate D2E/DX2                !
 ! R45   R(41,44)                1.4089         estimate D2E/DX2                !
 ! R46   R(44,45)                0.9619         estimate D2E/DX2                !
 ! A1    A(2,1,3)              106.7716         estimate D2E/DX2                !
 ! A2    A(2,1,7)              110.0957         estimate D2E/DX2                !
 ! A3    A(2,1,8)              110.6286         estimate D2E/DX2                !
 ! A4    A(3,1,7)              108.5955         estimate D2E/DX2                !
 ! A5    A(3,1,8)              114.0056         estimate D2E/DX2                !
 ! A6    A(7,1,8)              106.7269         estimate D2E/DX2                !
 ! A7    A(1,3,4)              108.51           estimate D2E/DX2                !
 ! A8    A(6,5,7)              109.6422         estimate D2E/DX2                !
 ! A9    A(6,5,16)             110.2096         estimate D2E/DX2                !
 ! A10   A(6,5,19)             110.0082         estimate D2E/DX2                !
 ! A11   A(7,5,16)             108.4368         estimate D2E/DX2                !
 ! A12   A(7,5,19)             102.0252         estimate D2E/DX2                !
 ! A13   A(16,5,19)            116.1082         estimate D2E/DX2                !
 ! A14   A(1,7,5)              116.5058         estimate D2E/DX2                !
 ! A15   A(1,8,9)              107.8513         estimate D2E/DX2                !
 ! A16   A(1,8,10)             109.6388         estimate D2E/DX2                !
 ! A17   A(1,8,12)             108.2493         estimate D2E/DX2                !
 ! A18   A(9,8,10)             111.4852         estimate D2E/DX2                !
 ! A19   A(9,8,12)             108.9152         estimate D2E/DX2                !
 ! A20   A(10,8,12)            110.6045         estimate D2E/DX2                !
 ! A21   A(8,10,11)            106.5018         estimate D2E/DX2                !
 ! A22   A(8,12,13)            107.4991         estimate D2E/DX2                !
 ! A23   A(8,12,14)            106.8832         estimate D2E/DX2                !
 ! A24   A(8,12,16)            113.3588         estimate D2E/DX2                !
 ! A25   A(13,12,14)           110.1555         estimate D2E/DX2                !
 ! A26   A(13,12,16)           107.2926         estimate D2E/DX2                !
 ! A27   A(14,12,16)           111.581          estimate D2E/DX2                !
 ! A28   A(12,14,15)           107.5035         estimate D2E/DX2                !
 ! A29   A(5,16,12)            110.0451         estimate D2E/DX2                !
 ! A30   A(5,16,17)            109.2442         estimate D2E/DX2                !
 ! A31   A(5,16,18)            116.4955         estimate D2E/DX2                !
 ! A32   A(12,16,17)           109.61           estimate D2E/DX2                !
 ! A33   A(12,16,18)           102.3315         estimate D2E/DX2                !
 ! A34   A(17,16,18)           108.826          estimate D2E/DX2                !
 ! A35   A(16,18,24)           119.5556         estimate D2E/DX2                !
 ! A36   A(5,19,20)            113.1875         estimate D2E/DX2                !
 ! A37   A(5,19,21)            107.3498         estimate D2E/DX2                !
 ! A38   A(5,19,22)            109.8475         estimate D2E/DX2                !
 ! A39   A(20,19,21)           107.8684         estimate D2E/DX2                !
 ! A40   A(20,19,22)           106.9659         estimate D2E/DX2                !
 ! A41   A(21,19,22)           111.6697         estimate D2E/DX2                !
 ! A42   A(19,22,23)           106.2422         estimate D2E/DX2                !
 ! A43   A(18,24,25)           111.247          estimate D2E/DX2                !
 ! A44   A(18,24,28)           108.9544         estimate D2E/DX2                !
 ! A45   A(18,24,29)           107.0401         estimate D2E/DX2                !
 ! A46   A(25,24,28)           110.5218         estimate D2E/DX2                !
 ! A47   A(25,24,29)           109.2082         estimate D2E/DX2                !
 ! A48   A(28,24,29)           109.8008         estimate D2E/DX2                !
 ! A49   A(27,26,28)           109.5418         estimate D2E/DX2                !
 ! A50   A(27,26,37)           109.0868         estimate D2E/DX2                !
 ! A51   A(27,26,41)           108.9362         estimate D2E/DX2                !
 ! A52   A(28,26,37)           109.1657         estimate D2E/DX2                !
 ! A53   A(28,26,41)           106.3015         estimate D2E/DX2                !
 ! A54   A(37,26,41)           113.7284         estimate D2E/DX2                !
 ! A55   A(24,28,26)           112.5316         estimate D2E/DX2                !
 ! A56   A(24,29,30)           107.7915         estimate D2E/DX2                !
 ! A57   A(24,29,31)           111.7288         estimate D2E/DX2                !
 ! A58   A(24,29,33)           109.1396         estimate D2E/DX2                !
 ! A59   A(30,29,31)           111.5896         estimate D2E/DX2                !
 ! A60   A(30,29,33)           109.4964         estimate D2E/DX2                !
 ! A61   A(31,29,33)           107.0652         estimate D2E/DX2                !
 ! A62   A(29,31,32)           107.8133         estimate D2E/DX2                !
 ! A63   A(29,33,34)           108.4106         estimate D2E/DX2                !
 ! A64   A(29,33,35)           111.8913         estimate D2E/DX2                !
 ! A65   A(29,33,37)           110.5478         estimate D2E/DX2                !
 ! A66   A(34,33,35)           110.2767         estimate D2E/DX2                !
 ! A67   A(34,33,37)           108.2593         estimate D2E/DX2                !
 ! A68   A(35,33,37)           107.3983         estimate D2E/DX2                !
 ! A69   A(33,35,36)           107.3935         estimate D2E/DX2                !
 ! A70   A(26,37,33)           109.2512         estimate D2E/DX2                !
 ! A71   A(26,37,38)           108.9386         estimate D2E/DX2                !
 ! A72   A(26,37,39)           108.0648         estimate D2E/DX2                !
 ! A73   A(33,37,38)           108.3821         estimate D2E/DX2                !
 ! A74   A(33,37,39)           111.0271         estimate D2E/DX2                !
 ! A75   A(38,37,39)           111.1403         estimate D2E/DX2                !
 ! A76   A(37,39,40)           106.795          estimate D2E/DX2                !
 ! A77   A(26,41,42)           109.1573         estimate D2E/DX2                !
 ! A78   A(26,41,43)           108.7491         estimate D2E/DX2                !
 ! A79   A(26,41,44)           110.6284         estimate D2E/DX2                !
 ! A80   A(42,41,43)           108.6818         estimate D2E/DX2                !
 ! A81   A(42,41,44)           107.9536         estimate D2E/DX2                !
 ! A82   A(43,41,44)           111.6209         estimate D2E/DX2                !
 ! A83   A(41,44,45)           106.4329         estimate D2E/DX2                !
 ! D1    D(2,1,3,4)           -168.4178         estimate D2E/DX2                !
 ! D2    D(7,1,3,4)             72.8956         estimate D2E/DX2                !
 ! D3    D(8,1,3,4)            -45.9369         estimate D2E/DX2                !
 ! D4    D(2,1,7,5)             53.6085         estimate D2E/DX2                !
 ! D5    D(3,1,7,5)            170.1779         estimate D2E/DX2                !
 ! D6    D(8,1,7,5)            -66.5024         estimate D2E/DX2                !
 ! D7    D(2,1,8,9)           -178.691          estimate D2E/DX2                !
 ! D8    D(2,1,8,10)            59.7434         estimate D2E/DX2                !
 ! D9    D(2,1,8,12)           -60.9941         estimate D2E/DX2                !
 ! D10   D(3,1,8,9)             60.9665         estimate D2E/DX2                !
 ! D11   D(3,1,8,10)           -60.5991         estimate D2E/DX2                !
 ! D12   D(3,1,8,12)           178.6634         estimate D2E/DX2                !
 ! D13   D(7,1,8,9)            -58.9236         estimate D2E/DX2                !
 ! D14   D(7,1,8,10)           179.5108         estimate D2E/DX2                !
 ! D15   D(7,1,8,12)            58.7733         estimate D2E/DX2                !
 ! D16   D(6,5,7,1)            -58.8058         estimate D2E/DX2                !
 ! D17   D(16,5,7,1)            61.5673         estimate D2E/DX2                !
 ! D18   D(19,5,7,1)          -175.3876         estimate D2E/DX2                !
 ! D19   D(6,5,16,12)           70.4435         estimate D2E/DX2                !
 ! D20   D(6,5,16,17)         -169.1736         estimate D2E/DX2                !
 ! D21   D(6,5,16,18)          -45.3989         estimate D2E/DX2                !
 ! D22   D(7,5,16,12)          -49.5762         estimate D2E/DX2                !
 ! D23   D(7,5,16,17)           70.8068         estimate D2E/DX2                !
 ! D24   D(7,5,16,18)         -165.4185         estimate D2E/DX2                !
 ! D25   D(19,5,16,12)        -163.652          estimate D2E/DX2                !
 ! D26   D(19,5,16,17)         -43.269          estimate D2E/DX2                !
 ! D27   D(19,5,16,18)          80.5057         estimate D2E/DX2                !
 ! D28   D(6,5,19,20)           62.0602         estimate D2E/DX2                !
 ! D29   D(6,5,19,21)         -179.0236         estimate D2E/DX2                !
 ! D30   D(6,5,19,22)          -57.4189         estimate D2E/DX2                !
 ! D31   D(7,5,19,20)          178.3768         estimate D2E/DX2                !
 ! D32   D(7,5,19,21)          -62.7071         estimate D2E/DX2                !
 ! D33   D(7,5,19,22)           58.8977         estimate D2E/DX2                !
 ! D34   D(16,5,19,20)         -63.9459         estimate D2E/DX2                !
 ! D35   D(16,5,19,21)          54.9702         estimate D2E/DX2                !
 ! D36   D(16,5,19,22)         176.575          estimate D2E/DX2                !
 ! D37   D(1,8,10,11)         -167.9992         estimate D2E/DX2                !
 ! D38   D(9,8,10,11)           72.644          estimate D2E/DX2                !
 ! D39   D(12,8,10,11)         -48.6996         estimate D2E/DX2                !
 ! D40   D(1,8,12,13)           63.3617         estimate D2E/DX2                !
 ! D41   D(1,8,12,14)         -178.3927         estimate D2E/DX2                !
 ! D42   D(1,8,12,16)          -55.0409         estimate D2E/DX2                !
 ! D43   D(9,8,12,13)         -179.6247         estimate D2E/DX2                !
 ! D44   D(9,8,12,14)          -61.3792         estimate D2E/DX2                !
 ! D45   D(9,8,12,16)           61.9726         estimate D2E/DX2                !
 ! D46   D(10,8,12,13)         -56.7735         estimate D2E/DX2                !
 ! D47   D(10,8,12,14)          61.472          estimate D2E/DX2                !
 ! D48   D(10,8,12,16)        -175.1762         estimate D2E/DX2                !
 ! D49   D(8,12,14,15)         178.0267         estimate D2E/DX2                !
 ! D50   D(13,12,14,15)        -65.4775         estimate D2E/DX2                !
 ! D51   D(16,12,14,15)         53.5805         estimate D2E/DX2                !
 ! D52   D(8,12,16,5)           50.4167         estimate D2E/DX2                !
 ! D53   D(8,12,16,17)         -69.7452         estimate D2E/DX2                !
 ! D54   D(8,12,16,18)         174.8798         estimate D2E/DX2                !
 ! D55   D(13,12,16,5)         -68.1053         estimate D2E/DX2                !
 ! D56   D(13,12,16,17)        171.7328         estimate D2E/DX2                !
 ! D57   D(13,12,16,18)         56.3577         estimate D2E/DX2                !
 ! D58   D(14,12,16,5)         171.1491         estimate D2E/DX2                !
 ! D59   D(14,12,16,17)         50.9872         estimate D2E/DX2                !
 ! D60   D(14,12,16,18)        -64.3879         estimate D2E/DX2                !
 ! D61   D(5,16,18,24)         -42.0033         estimate D2E/DX2                !
 ! D62   D(12,16,18,24)       -162.0698         estimate D2E/DX2                !
 ! D63   D(17,16,18,24)         81.9862         estimate D2E/DX2                !
 ! D64   D(16,18,24,25)         55.4618         estimate D2E/DX2                !
 ! D65   D(16,18,24,28)        -66.6267         estimate D2E/DX2                !
 ! D66   D(16,18,24,29)        174.6957         estimate D2E/DX2                !
 ! D67   D(5,19,22,23)         -51.6497         estimate D2E/DX2                !
 ! D68   D(20,19,22,23)       -174.8642         estimate D2E/DX2                !
 ! D69   D(21,19,22,23)         67.3344         estimate D2E/DX2                !
 ! D70   D(18,24,28,26)        179.4147         estimate D2E/DX2                !
 ! D71   D(25,24,28,26)         56.8886         estimate D2E/DX2                !
 ! D72   D(29,24,28,26)        -63.6514         estimate D2E/DX2                !
 ! D73   D(18,24,29,30)         56.8194         estimate D2E/DX2                !
 ! D74   D(18,24,29,31)        -66.129          estimate D2E/DX2                !
 ! D75   D(18,24,29,33)        175.6611         estimate D2E/DX2                !
 ! D76   D(25,24,29,30)        177.3605         estimate D2E/DX2                !
 ! D77   D(25,24,29,31)         54.412          estimate D2E/DX2                !
 ! D78   D(25,24,29,33)        -63.7978         estimate D2E/DX2                !
 ! D79   D(28,24,29,30)        -61.3076         estimate D2E/DX2                !
 ! D80   D(28,24,29,31)        175.7439         estimate D2E/DX2                !
 ! D81   D(28,24,29,33)         57.5341         estimate D2E/DX2                !
 ! D82   D(27,26,28,24)        -55.8898         estimate D2E/DX2                !
 ! D83   D(37,26,28,24)         63.4976         estimate D2E/DX2                !
 ! D84   D(41,26,28,24)       -173.4433         estimate D2E/DX2                !
 ! D85   D(27,26,37,33)         62.3887         estimate D2E/DX2                !
 ! D86   D(27,26,37,38)       -179.3832         estimate D2E/DX2                !
 ! D87   D(27,26,37,39)        -58.5205         estimate D2E/DX2                !
 ! D88   D(28,26,37,33)        -57.2802         estimate D2E/DX2                !
 ! D89   D(28,26,37,38)         60.9478         estimate D2E/DX2                !
 ! D90   D(28,26,37,39)       -178.1895         estimate D2E/DX2                !
 ! D91   D(41,26,37,33)       -175.7947         estimate D2E/DX2                !
 ! D92   D(41,26,37,38)        -57.5666         estimate D2E/DX2                !
 ! D93   D(41,26,37,39)         63.2961         estimate D2E/DX2                !
 ! D94   D(27,26,41,42)         58.9309         estimate D2E/DX2                !
 ! D95   D(27,26,41,43)        177.3562         estimate D2E/DX2                !
 ! D96   D(27,26,41,44)        -59.7185         estimate D2E/DX2                !
 ! D97   D(28,26,41,42)        176.886          estimate D2E/DX2                !
 ! D98   D(28,26,41,43)        -64.6887         estimate D2E/DX2                !
 ! D99   D(28,26,41,44)         58.2366         estimate D2E/DX2                !
 ! D100  D(37,26,41,42)        -62.9691         estimate D2E/DX2                !
 ! D101  D(37,26,41,43)         55.4561         estimate D2E/DX2                !
 ! D102  D(37,26,41,44)        178.3815         estimate D2E/DX2                !
 ! D103  D(24,29,31,32)         61.0646         estimate D2E/DX2                !
 ! D104  D(30,29,31,32)        -59.6958         estimate D2E/DX2                !
 ! D105  D(33,29,31,32)       -179.4933         estimate D2E/DX2                !
 ! D106  D(24,29,33,34)         64.4572         estimate D2E/DX2                !
 ! D107  D(24,29,33,35)       -173.714          estimate D2E/DX2                !
 ! D108  D(24,29,33,37)        -54.06           estimate D2E/DX2                !
 ! D109  D(30,29,33,34)       -177.7691         estimate D2E/DX2                !
 ! D110  D(30,29,33,35)        -55.9403         estimate D2E/DX2                !
 ! D111  D(30,29,33,37)         63.7137         estimate D2E/DX2                !
 ! D112  D(31,29,33,34)        -56.6379         estimate D2E/DX2                !
 ! D113  D(31,29,33,35)         65.1909         estimate D2E/DX2                !
 ! D114  D(31,29,33,37)       -175.1552         estimate D2E/DX2                !
 ! D115  D(29,33,35,36)        -56.5762         estimate D2E/DX2                !
 ! D116  D(34,33,35,36)         64.1747         estimate D2E/DX2                !
 ! D117  D(37,33,35,36)       -178.0635         estimate D2E/DX2                !
 ! D118  D(29,33,37,26)         54.3651         estimate D2E/DX2                !
 ! D119  D(29,33,37,38)        -64.2105         estimate D2E/DX2                !
 ! D120  D(29,33,37,39)        173.4524         estimate D2E/DX2                !
 ! D121  D(34,33,37,26)        -64.2443         estimate D2E/DX2                !
 ! D122  D(34,33,37,38)        177.1801         estimate D2E/DX2                !
 ! D123  D(34,33,37,39)         54.843          estimate D2E/DX2                !
 ! D124  D(35,33,37,26)        176.6903         estimate D2E/DX2                !
 ! D125  D(35,33,37,38)         58.1146         estimate D2E/DX2                !
 ! D126  D(35,33,37,39)        -64.2224         estimate D2E/DX2                !
 ! D127  D(26,37,39,40)        169.7397         estimate D2E/DX2                !
 ! D128  D(33,37,39,40)         49.9427         estimate D2E/DX2                !
 ! D129  D(38,37,39,40)        -70.779          estimate D2E/DX2                !
 ! D130  D(26,41,44,45)        -56.56           estimate D2E/DX2                !
 ! D131  D(42,41,44,45)       -175.9379         estimate D2E/DX2                !
 ! D132  D(43,41,44,45)         64.681          estimate D2E/DX2                !
 --------------------------------------------------------------------------------
 Trust Radius=3.00D-01 FncErr=1.00D-07 GrdErr=1.00D-06 EigMax=2.50D+02 EigMin=1.00D-04
 Number of steps in this run=    270 maximum allowed number of steps=    270.
 GradGradGradGradGradGradGradGradGradGradGradGradGradGradGradGradGradGrad

 Leave Link  103 at Thu Mar 16 18:04:46 2023, MaxMem=   262144000 cpu:               0.1 elap:               0.0
 (Enter /dragofs/sw/campus/0.2/software/gaussian/16.gaussian/gaussian/g16_legacy/l202.exe)
                          Input orientation:                          
 ---------------------------------------------------------------------
 Center     Atomic      Atomic             Coordinates (Angstroms)
 Number     Number       Type             X           Y           Z
 ---------------------------------------------------------------------
      1          6           0       -3.960606    0.251886    0.633788
      2          1           0       -3.859712   -0.335108    1.554919
      3          8           0       -5.166671    0.908139    0.711524
      4          1           0       -5.366669    1.283086   -0.151892
      5          6           0       -1.589188    0.733829    0.685326
      6          1           0       -1.473689    0.225448    1.654822
      7          8           0       -2.922235    1.219571    0.555070
      8          6           0       -3.820090   -0.640925   -0.588223
      9          1           0       -3.904778   -0.003939   -1.483539
     10          8           0       -4.813941   -1.630466   -0.565878
     11          1           0       -4.573157   -2.275342   -1.239669
     12          6           0       -2.441731   -1.268968   -0.560938
     13          1           0       -2.384975   -1.903915    0.336619
     14          8           0       -2.328610   -2.060541   -1.724880
     15          1           0       -1.444235   -2.439192   -1.732470
     16          6           0       -1.314844   -0.248497   -0.465668
     17          1           0       -1.242635    0.309003   -1.407155
     18          8           0       -0.157153   -1.082529   -0.332138
     19          6           0       -0.775612    2.028761    0.673302
     20          1           0        0.292187    1.864471    0.793145
     21          1           0       -0.935748    2.507524   -0.303430
     22          8           0       -1.183596    2.857712    1.729939
     23          1           0       -2.141578    2.929628    1.661464
     24          6           0        1.024284   -0.540579    0.151089
     25          1           0        0.872607   -0.063162    1.130812
     26          6           0        2.729783    1.009942   -0.351166
     27          1           0        2.576806    1.477165    0.633324
     28          8           0        1.514252    0.391892   -0.781332
     29          6           0        2.013276   -1.688506    0.300964
     30          1           0        2.110898   -2.177136   -0.677439
     31          8           0        1.608100   -2.599980    1.298147
     32          1           0        0.758337   -2.965128    1.035167
     33          6           0        3.358877   -1.133204    0.725855
     34          1           0        3.249793   -0.683856    1.724337
     35          8           0        4.357272   -2.130200    0.744700
     36          1           0        4.053259   -2.830798    1.330517
     37          6           0        3.816300   -0.050771   -0.235539
     38          1           0        3.974987   -0.508449   -1.223177
     39          8           0        4.988498    0.574115    0.228435
     40          1           0        5.609185   -0.128147    0.450054
     41          6           0        3.039079    2.091088   -1.365523
     42          1           0        3.931340    2.631202   -1.051453
     43          1           0        3.237904    1.617722   -2.336526
     44          8           0        1.978124    3.014599   -1.445759
     45          1           0        1.190383    2.506089   -1.660670
 ---------------------------------------------------------------------
                    Distance matrix (angstroms):
                    1          2          3          4          5
     1  C    0.000000
     2  H    1.096916   0.000000
     3  O    1.375247   1.991261   0.000000
     4  H    1.912506   2.793327   0.962326   0.000000
     5  C    2.420444   2.655955   3.581823   3.907938   0.000000
     6  H    2.688488   2.453020   3.872208   4.420193   1.100779
     7  O    1.421557   2.072580   2.271335   2.545405   1.424755
     8  C    1.519923   2.165214   2.429449   2.506813   2.913554
     9  H    2.133457   3.056784   2.691201   2.359416   3.257335
    10  O    2.389692   2.662008   2.863685   2.994274   4.189801
    11  H    3.204987   3.476095   3.780736   3.804646   4.654545
    12  C    2.459136   2.712861   3.712715   3.903276   2.508226
    13  H    2.686708   2.473916   3.973164   4.391596   2.777151
    14  O    3.684297   4.009797   4.775324   4.783716   3.763554
    15  H    4.378721   4.590057   5.570840   5.633744   3.991843
    16  C    2.908478   3.250635   4.190484   4.342981   1.537861
    17  H    3.399423   4.004729   4.499536   4.419523   2.163112
    18  O    4.144868   4.222389   5.490652   5.724306   2.526878
    19  C    3.647332   3.984570   4.531959   4.723852   1.529346
    20  H    4.551052   4.759907   5.542595   5.766607   2.197623
    21  H    3.887936   4.481471   4.635609   4.599486   2.133217
    22  O    3.962784   4.169692   4.550043   4.849622   2.401375
    23  H    3.396363   3.690777   3.760318   4.049762   2.465667
    24  C    5.070515   5.085900   6.382852   6.652957   2.956309
    25  H    4.868905   4.759061   6.131240   6.510475   2.625659
    26  C    6.804858   6.990262   7.968291   8.103509   4.450176
    27  H    6.651245   6.749995   7.764750   7.984549   4.232110
    28  O    5.656522   5.904751   6.865119   6.966886   3.449543
    29  C    6.289925   6.155979   7.646095   7.968628   4.358117
    30  H    6.669530   6.635109   8.025656   8.256110   4.901172
    31  O    6.291661   5.923896   7.651702   8.113459   4.659666
    32  H    5.725269   5.339806   7.086089   7.547988   4.394945
    33  C    7.449952   7.309742   8.766542   9.096376   5.288743
    34  H    7.352194   7.120069   8.625376   9.035071   5.148312
    35  O    8.652961   8.449712   9.996904  10.344536   6.600498
    36  H    8.614546   8.300237   9.968446  10.385404   6.705225
    37  C    7.831194   7.887189   9.083513   9.279714   5.539214
    38  H    8.185357   8.314468   9.450910   9.572031   6.012128
    39  O    8.964073   8.993168  10.172139  10.386374   6.595469
    40  H    9.579096   9.535385  10.828727  11.082567   7.253615
    41  C    7.508362   7.874562   8.546802   8.531258   5.241087
    42  H    8.413322   8.734567   9.426072   9.438199   6.090374
    43  H    7.906125   8.326647   8.968333   8.883878   5.763131
    44  O    6.872089   7.369188   7.754943   7.656253   4.740163
    45  H    6.072780   6.626905   6.970860   6.838646   4.046062
                    6          7          8          9         10
     6  H    0.000000
     7  O    2.072684   0.000000
     8  C    3.359680   2.361082   0.000000
     9  H    3.976446   2.572605   1.102050   0.000000
    10  O    4.419639   3.599693   1.402651   2.077082   0.000000
    11  H    4.923285   4.261578   1.913847   2.380226   0.963243
    12  C    2.842530   2.769329   1.514944   2.142895   2.399601
    13  H    2.665012   3.176875   2.123683   3.038533   2.605600
    14  O    4.168815   4.038527   2.351980   2.602338   2.775810
    15  H    4.309863   4.561126   3.191826   3.470835   3.656486
    16  C    2.178608   2.404337   2.538755   2.793497   3.763451
    17  H    3.071819   2.738707   2.866407   2.681562   4.150122
    18  O    2.718838   3.705736   3.698338   4.066174   4.694736
    19  C    2.168555   2.297119   4.241169   4.309932   5.588704
    20  H    2.558750   3.287109   5.009592   5.127257   6.335146
    21  H    3.054833   2.518328   4.279400   4.063895   5.677343
    22  O    2.649266   2.662084   4.956353   5.091200   6.212401
    23  H    2.785446   2.181245   4.541733   4.648197   5.735594
    24  C    3.014611   4.340085   4.901491   5.220694   5.982204
    25  H    2.421361   4.046938   5.030934   5.446260   6.137754
    26  C    4.723198   5.728046   6.758875   6.806440   7.995350
    27  H    4.360821   5.505627   6.848267   6.977515   8.106701
    28  O    3.858801   4.706744   5.436838   5.478655   6.646983
    29  C    4.201794   5.734174   5.993016   6.406682   6.882273
    30  H    4.905213   6.195896   6.127359   6.446778   6.947279
    31  O    4.196151   5.972024   6.071370   6.698435   6.757008
    32  H    3.942802   5.593640   5.385101   6.071010   5.949366
    33  C    5.105155   6.709477   7.314828   7.675763   8.289198
    34  H    4.810712   6.563852   7.438617   7.870238   8.435933
    35  O    6.354330   8.015494   8.418068   8.817455   9.277850
    36  H    6.323999   8.103353   8.394446   8.901707   9.146822
    37  C    5.624388   6.902658   7.667276   7.821428   8.779842
    38  H    6.205607   7.329385   7.822016   7.900191   8.884606
    39  O    6.626916   7.943740   8.929416   9.074985  10.078637
    40  H    7.193302   8.637853   9.500115   9.709259  10.579728
    41  C    5.741792   6.323408   7.424035   7.253979   8.726931
    42  H    6.505837   7.179492   8.426510   8.278612   9.740510
    43  H    6.329960   6.816683   7.614022   7.373959   8.861046
    44  O    5.413684   5.589182   6.907786   6.612226   8.275444
    45  H    4.826084   4.845437   6.013209   5.682630   7.373029
                   11         12         13         14         15
    11  H    0.000000
    12  C    2.452843   0.000000
    13  H    2.722275   1.100903   0.000000
    14  O    2.306417   1.412142   2.068209   0.000000
    15  H    3.171727   1.933109   2.335089   0.962057   0.000000
    16  C    3.914560   1.523257   2.128204   2.428341   2.533905
    17  H    4.218918   2.154973   3.040180   2.625839   2.774716
    18  O    4.663422   2.303564   2.466800   2.758888   2.336246
    19  C    6.050298   3.895423   4.262551   4.988534   5.118340
    20  H    6.703876   4.373361   4.645034   5.349275   5.283503
    21  H    6.081373   4.073842   4.687293   4.982750   5.174042
    22  O    6.830515   4.884722   5.104679   6.118500   6.333514
    23  H    6.435904   4.759976   5.017728   6.033580   6.389781
    24  C    6.022869   3.612588   3.676432   4.131760   3.639521
    25  H    6.337923   3.911627   3.825043   4.732049   4.383111
    26  C    8.057013   5.655262   5.926581   6.074726   5.588108
    27  H    8.289233   5.844076   6.011573   6.491502   6.091273
    28  O    6.661888   4.296141   4.660956   4.655352   4.203849
    29  C    6.789626   4.556970   4.403667   4.805666   4.080780
    30  H    6.708378   4.643789   4.616908   4.562889   3.717625
    31  O    6.689831   4.650690   4.165776   4.992732   4.304328
    32  H    5.837423   3.957897   3.390362   4.238559   3.575996
    33  C    8.251359   5.943174   5.808385   6.262073   5.551473
    34  H    8.515674   6.161029   5.930001   6.701562   6.088072
    35  O    9.149391   6.976593   6.758375   7.127741   6.315800
    36  H    9.018284   6.942752   6.580107   7.117373   6.305370
    37  C    8.737275   6.383795   6.497486   6.634548   5.968131
    38  H    8.728857   6.495477   6.695476   6.511223   5.775389
    39  O   10.084641   7.695997   7.779488   8.018536   7.369208
    40  H   10.542566   8.193951   8.189799   8.454175   7.736606
    41  C    8.776542   6.478936   6.948215   6.795384   6.384214
    42  H    9.820187   7.487854   7.898726   7.851938   7.420882
    43  H    8.796119   6.613921   7.152929   6.699986   6.224617
    44  O    8.422899   6.218277   6.812142   6.662050   6.445043
    45  H    7.500514   5.352823   6.018346   5.765548   5.603764
                   16         17         18         19         20
    16  C    0.000000
    17  H    1.096548   0.000000
    18  O    1.433069   2.066469   0.000000
    19  C    2.602677   2.739339   3.327691   0.000000
    20  H    2.937991   3.101045   3.186374   1.086990   0.000000
    21  H    2.786698   2.479089   3.673624   1.099483   1.767433
    22  O    3.806107   4.042371   4.564126   1.403600   2.010484
    23  H    3.912628   4.134271   4.899979   1.911515   2.794951
    24  C    2.436641   2.879034   1.386727   3.180226   2.594700
    25  H    2.714413   3.324760   2.059062   2.702237   2.041244
    26  C    4.237427   4.169716   3.565557   3.791480   2.825162
    27  H    4.396662   4.485118   3.867646   3.397729   2.322721
    28  O    2.917795   2.828242   2.273607   3.168403   2.478086
    29  C    3.706445   4.184336   2.340681   4.662039   3.978446
    30  H    3.937030   4.237872   2.541939   5.276932   4.669573
    31  O    4.145373   4.889533   2.841937   5.243830   4.681664
    32  H    3.732381   4.548490   2.500365   5.236685   4.858075
    33  C    4.903682   5.272912   3.672109   5.205265   4.288959
    34  H    5.081493   5.565422   3.999414   4.966573   4.013542
    35  O    6.097434   6.476044   4.757860   6.606705   5.699532
    36  H    6.221824   6.737929   4.852673   6.882241   6.039866
    37  C    5.140106   5.205280   4.106359   5.122119   4.140738
    38  H    5.350113   5.284473   4.265923   5.709839   4.822792
    39  O    6.394575   6.447671   5.434743   5.961448   4.902984
    40  H    6.985357   7.112507   5.896891   6.742976   5.688471
    41  C    5.023947   4.637956   4.621215   4.325802   3.500945
    42  H    6.013174   5.682354   5.570008   5.049070   4.151368
    43  H    5.264067   4.759381   4.778634   5.033520   4.304994
    44  O    4.738355   4.206546   4.752475   3.611836   3.029500
    45  H    3.910491   3.288014   4.056973   3.088754   2.690657
                   21         22         23         24         25
    21  H    0.000000
    22  O    2.078136   0.000000
    23  H    2.343716   0.963115   0.000000
    24  C    3.652293   4.349239   4.934192   0.000000
    25  H    3.454797   3.621937   4.280619   1.100359   0.000000
    26  C    3.959943   4.802061   5.609459   2.359047   2.607089
    27  H    3.778516   4.153203   5.042804   2.591171   2.350403
    28  O    3.272123   4.434539   5.076657   1.406762   2.067626
    29  C    5.164175   5.738472   6.359319   1.522598   2.152096
    30  H    5.600712   6.480652   7.045073   2.132020   3.045000
    31  O    5.926450   6.145438   6.690938   2.428521   2.646582
    32  H    5.883170   6.177320   6.599235   2.594371   2.905789
    33  C    5.723472   6.129409   6.901954   2.476264   2.736881
    34  H    5.640523   5.674299   6.490616   2.729199   2.527557
    35  O    7.114993   7.520052   8.287181   3.740064   4.069965
    36  H    7.487166   7.742308   8.465698   3.976285   4.220929
    37  C    5.397355   6.109119   6.926594   2.860900   3.245365
    38  H    5.835867   6.831026   7.586428   3.255194   3.919733
    39  O    6.254410   6.750117   7.644606   4.118679   4.261568
    40  H    7.095819   7.529630   8.419729   4.613111   4.785690
    41  C    4.135300   5.291558   6.058466   3.644884   3.945387
    42  H    4.925787   5.826664   6.658026   4.467357   4.623605
    43  H    4.727007   6.133790   6.829630   3.968199   4.521331
    44  O    3.170598   4.483988   5.160814   4.012359   4.163352
    45  H    2.522407   4.153991   4.724185   3.548555   3.807152
                   26         27         28         29         30
    26  C    0.000000
    27  H    1.100418   0.000000
    28  O    1.429876   2.075594   0.000000
    29  C    2.867103   3.232569   2.397592   0.000000
    30  H    3.262965   3.910126   2.639448   1.097981   0.000000
    31  O    4.124311   4.243052   3.644769   1.410435   2.081957
    32  H    4.648623   4.816874   3.891100   1.934862   2.320209
    33  C    2.479679   2.726577   2.828458   1.516422   2.148599
    34  H    2.728933   2.512615   3.232292   2.136419   3.048851
    35  O    3.702720   4.024369   4.095422   2.426172   2.659112
    36  H    4.396695   4.607010   4.614346   2.554670   2.869134
    37  C    1.522827   2.150780   2.406920   2.494175   2.761358
    38  H    2.148592   3.056823   2.657265   2.750246   2.560698
    39  O    2.372272   2.606855   3.622598   3.738537   4.082961
    40  H    3.198149   3.435977   4.307578   3.922692   4.208041
    41  C    1.514418   2.141492   2.356617   4.256146   4.421845
    42  H    2.136030   2.450518   3.306023   4.916084   5.154999
    43  H    2.137578   3.045787   2.625312   4.403091   4.292279
    44  O    2.404532   2.654187   2.745038   5.017118   5.249958
    45  H    2.514559   2.871108   2.312565   4.703168   4.873057
                   31         32         33         34         35
    31  O    0.000000
    32  H    0.961555   0.000000
    33  C    2.354606   3.196002   0.000000
    34  H    2.558970   3.447682   1.100354   0.000000
    35  O    2.843404   3.705915   1.411081   2.068359   0.000000
    36  H    2.456243   3.310859   1.931219   2.325943   0.962519
    37  C    3.704971   4.411271   1.518280   2.136081   2.361682
    38  H    4.041501   4.634892   2.137437   3.040479   2.578519
    39  O    4.758808   5.574165   2.412059   2.615972   2.824588
    40  H    4.778902   5.649915   2.479938   2.738492   2.379563
    41  C    5.581125   6.044040   3.856448   4.158359   4.899995
    42  H    6.187352   6.763198   4.202058   4.377114   5.106714
    43  H    5.801389   6.206374   4.118301   4.667763   4.979343
    44  O    6.260147   6.587868   4.881256   5.034404   6.076793
    45  H    5.916167   6.114607   4.862337   5.086766   6.108205
                   36         37         38         39         40
    36  H    0.000000
    37  C    3.199567   0.000000
    38  H    3.452649   1.100036   0.000000
    39  O    3.699012   1.407055   2.075169   0.000000
    40  H    3.240439   1.921057   2.369585   0.963088   0.000000
    41  C    5.702820   2.543324   2.766546   2.939752   3.850554
    42  H    5.960041   2.805696   3.144647   2.643351   3.561417
    43  H    5.822486   2.744550   2.510665   3.276083   4.054141
    44  O    6.795775   3.773595   4.055721   4.221521   5.162903
    45  H    6.754674   3.932426   4.127088   4.661214   5.560590
                   41         42         43         44         45
    41  C    0.000000
    42  H    1.089262   0.000000
    43  H    1.098387   1.777472   0.000000
    44  O    1.408878   2.029168   2.081292   0.000000
    45  H    1.917554   2.810631   2.332020   0.961928   0.000000
 Stoichiometry    C12H22O11
 Framework group  C1[X(C12H22O11)]
 Deg. of freedom   129
 Full point group                 C1      NOp   1
 Largest Abelian subgroup         C1      NOp   1
 Largest concise Abelian subgroup C1      NOp   1
                         Standard orientation:                         
 ---------------------------------------------------------------------
 Center     Atomic      Atomic             Coordinates (Angstroms)
 Number     Number       Type             X           Y           Z
 ---------------------------------------------------------------------
      1          6           0        3.960606    0.251886   -0.633788
      2          1           0        3.859712   -0.335108   -1.554919
      3          8           0        5.166671    0.908139   -0.711524
      4          1           0        5.366669    1.283086    0.151892
      5          6           0        1.589188    0.733829   -0.685326
      6          1           0        1.473689    0.225448   -1.654822
      7          8           0        2.922235    1.219571   -0.555070
      8          6           0        3.820090   -0.640925    0.588223
      9          1           0        3.904778   -0.003939    1.483539
     10          8           0        4.813941   -1.630466    0.565878
     11          1           0        4.573157   -2.275342    1.239669
     12          6           0        2.441731   -1.268968    0.560938
     13          1           0        2.384975   -1.903915   -0.336619
     14          8           0        2.328610   -2.060541    1.724880
     15          1           0        1.444235   -2.439192    1.732470
     16          6           0        1.314844   -0.248497    0.465668
     17          1           0        1.242635    0.309003    1.407155
     18          8           0        0.157153   -1.082529    0.332138
     19          6           0        0.775612    2.028761   -0.673302
     20          1           0       -0.292187    1.864471   -0.793145
     21          1           0        0.935748    2.507524    0.303430
     22          8           0        1.183596    2.857712   -1.729939
     23          1           0        2.141578    2.929628   -1.661464
     24          6           0       -1.024284   -0.540579   -0.151089
     25          1           0       -0.872607   -0.063162   -1.130812
     26          6           0       -2.729783    1.009942    0.351166
     27          1           0       -2.576806    1.477165   -0.633324
     28          8           0       -1.514252    0.391892    0.781332
     29          6           0       -2.013276   -1.688506   -0.300964
     30          1           0       -2.110898   -2.177136    0.677439
     31          8           0       -1.608100   -2.599980   -1.298147
     32          1           0       -0.758337   -2.965128   -1.035167
     33          6           0       -3.358877   -1.133204   -0.725855
     34          1           0       -3.249793   -0.683856   -1.724337
     35          8           0       -4.357272   -2.130200   -0.744700
     36          1           0       -4.053259   -2.830798   -1.330517
     37          6           0       -3.816300   -0.050771    0.235539
     38          1           0       -3.974987   -0.508449    1.223177
     39          8           0       -4.988498    0.574115   -0.228435
     40          1           0       -5.609185   -0.128147   -0.450054
     41          6           0       -3.039079    2.091088    1.365523
     42          1           0       -3.931340    2.631202    1.051453
     43          1           0       -3.237904    1.617722    2.336526
     44          8           0       -1.978124    3.014599    1.445759
     45          1           0       -1.190383    2.506089    1.660670
 ---------------------------------------------------------------------
 Rotational constants (GHZ):           0.4223672           0.1463163           0.1241898
 Leave Link  202 at Thu Mar 16 18:04:46 2023, MaxMem=   262144000 cpu:               0.0 elap:               0.0
 (Enter /dragofs/sw/campus/0.2/software/gaussian/16.gaussian/gaussian/g16_legacy/l301.exe)
 Standard basis: 6-311G(d,p) (5D, 7F)
 Ernie: Thresh=  0.10000D-02 Tol=  0.10000D-05 Strict=F.
 There are   569 symmetry adapted cartesian basis functions of A   symmetry.
 There are   546 symmetry adapted basis functions of A   symmetry.
   546 basis functions,   912 primitive gaussians,   569 cartesian basis functions
    91 alpha electrons       91 beta electrons
       nuclear repulsion energy      2318.9718544068 Hartrees.
 IExCor= 4336 DFT=T Ex+Corr=M062X ExCW=0 ScaHFX=  0.540000
 ScaDFX=  1.000000  1.000000  1.000000  1.000000 ScalE2=  1.000000  1.000000
 IRadAn=      5 IRanWt=     -1 IRanGd=            0 ICorTp=0 IEmpDi=  4
 NAtoms=   45 NActive=   45 NUniq=   45 SFac= 1.00D+00 NAtFMM=   60 NAOKFM=F Big=F
 Integral buffers will be    131072 words long.
 Raffenetti 2 integral format.
 Two-electron integral symmetry is turned on.
 Leave Link  301 at Thu Mar 16 18:04:46 2023, MaxMem=   262144000 cpu:               0.4 elap:               0.1
 (Enter /dragofs/sw/campus/0.2/software/gaussian/16.gaussian/gaussian/g16_legacy/l302.exe)
 NPDir=0 NMtPBC=     1 NCelOv=     1 NCel=       1 NClECP=     1 NCelD=      1
         NCelK=      1 NCelE2=     1 NClLst=     1 CellRange=     0.0.
 One-electron integrals computed using PRISM.
 One-electron integral symmetry used in STVInt
 NBasis=   546 RedAO= T EigKep=  6.87D-04  NBF=   546
 NBsUse=   546 1.00D-06 EigRej= -1.00D+00 NBFU=   546
 Precomputing XC quadrature grid using
 IXCGrd= 4 IRadAn=           5 IRanWt=          -1 IRanGd=           0 AccXCQ= 0.00D+00.
 Generated NRdTot=       0 NPtTot=           0 NUsed=           0 NTot=          32
 NSgBfM=   560   560   560   560   560 MxSgAt=    45 MxSgA2=    45.
 Leave Link  302 at Thu Mar 16 18:04:47 2023, MaxMem=   262144000 cpu:               6.1 elap:               0.8
 (Enter /dragofs/sw/campus/0.2/software/gaussian/16.gaussian/gaussian/g16_legacy/l303.exe)
 DipDrv:  MaxL=1.
 Leave Link  303 at Thu Mar 16 18:04:47 2023, MaxMem=   262144000 cpu:               0.5 elap:               0.1
 (Enter /dragofs/sw/campus/0.2/software/gaussian/16.gaussian/gaussian/g16_legacy/l401.exe)
 ExpMin= 1.03D-01 ExpMax= 8.59D+03 ExpMxC= 1.30D+03 IAcc=3 IRadAn=         5 AccDes= 0.00D+00
 Harris functional with IExCor= 1009 and IRadAn=       5 diagonalized for initial guess.
 HarFok:  IExCor= 1009 AccDes= 0.00D+00 IRadAn=         5 IDoV= 1 UseB2=F ITyADJ=14
 ICtDFT=  3500011 ScaDFX=  1.000000  1.000000  1.000000  1.000000
 FoFCou: FMM=F IPFlag=           0 FMFlag=      100000 FMFlg1=           0
         NFxFlg=           0 DoJE=T BraDBF=F KetDBF=T FulRan=T
         wScrn=  0.000000 ICntrl=       500 IOpCl=  0 I1Cent=   200000004 NGrid=           0
         NMat0=    1 NMatS0=      1 NMatT0=    0 NMatD0=    1 NMtDS0=    0 NMtDT0=    0
 Petite list used in FoFCou.
 Harris En= -1297.11292049279    
 JPrj=0 DoOrth=F DoCkMO=F.
 Leave Link  401 at Thu Mar 16 18:04:52 2023, MaxMem=   262144000 cpu:              36.9 elap:               4.6
 (Enter /dragofs/sw/campus/0.2/software/gaussian/16.gaussian/gaussian/g16_legacy/l502.exe)
 Integral symmetry usage will be decided dynamically.
 Closed shell SCF:
 Using DIIS extrapolation, IDIIS=  1040.
 NGot=   262144000 LenX=   261486196 LenY=   261161866
 Requested convergence on RMS density matrix=1.00D-08 within 128 cycles.
 Requested convergence on MAX density matrix=1.00D-06.
 Requested convergence on             energy=1.00D-06.
 No special actions if energy rises.
 Fock matrices will be formed incrementally for  20 cycles.
 Integral accuracy reduced to 1.0D-05 until final iterations.

 Cycle   1  Pass 0  IDiag  1:
 FoFJK:  IHMeth= 1 ICntrl=       0 DoSepK=F KAlg= 0 I1Cent=           0 FoldK=F
 IRaf= 750000000 NMat=       1 IRICut=       1 DoRegI=T DoRafI=F ISym2E= 0 IDoP0=0 IntGTp=1.
 FoFCou: FMM=F IPFlag=           0 FMFlag=      100000 FMFlg1=           0
         NFxFlg=           0 DoJE=F BraDBF=F KetDBF=F FulRan=T
         wScrn=  0.000000 ICntrl=         0 IOpCl=  0 I1Cent=           0 NGrid=           0
         NMat0=    1 NMatS0=      1 NMatT0=    0 NMatD0=    1 NMtDS0=    0 NMtDT0=    0
 Symmetry not used in FoFCou.
 E= -1297.32788065884    
 DIIS: error= 1.91D-02 at cycle   1 NSaved=   1.
 NSaved= 1 IEnMin= 1 EnMin= -1297.32788065884     IErMin= 1 ErrMin= 1.91D-02
 ErrMax= 1.91D-02  0.00D+00 EMaxC= 1.00D-01 BMatC= 8.54D-01 BMatP= 8.54D-01
 IDIUse=3 WtCom= 8.09D-01 WtEn= 1.91D-01
 Coeff-Com:  0.100D+01
 Coeff-En:   0.100D+01
 Coeff:      0.100D+01
 Gap=     0.418 Goal=   None    Shift=    0.000
 GapD=    0.418 DampG=2.000 DampE=0.500 DampFc=1.0000 IDamp=-1.
 RMSDP=2.57D-03 MaxDP=1.81D-01              OVMax= 1.11D-01

 Cycle   2  Pass 0  IDiag  1:
 RMSU=  2.56D-03    CP:  1.03D+00
 E= -1297.41275697986     Delta-E=       -0.084876321022 Rises=F Damp=F
 DIIS: error= 2.06D-02 at cycle   2 NSaved=   2.
 NSaved= 2 IEnMin= 2 EnMin= -1297.41275697986     IErMin= 1 ErrMin= 1.91D-02
 ErrMax= 2.06D-02  0.00D+00 EMaxC= 1.00D-01 BMatC= 6.11D-01 BMatP= 8.54D-01
 IDIUse=3 WtCom= 7.94D-01 WtEn= 2.06D-01
 Coeff-Com:  0.454D+00 0.546D+00
 Coeff-En:   0.447D+00 0.553D+00
 Coeff:      0.453D+00 0.547D+00
 Gap=     0.397 Goal=   None    Shift=    0.000
 RMSDP=1.45D-03 MaxDP=9.46D-02 DE=-8.49D-02 OVMax= 5.74D-02

 Cycle   3  Pass 0  IDiag  1:
 RMSU=  4.60D-04    CP:  1.01D+00  4.67D-01
 E= -1297.80449827035     Delta-E=       -0.391741290492 Rises=F Damp=F
 DIIS: error= 4.21D-03 at cycle   3 NSaved=   3.
 NSaved= 3 IEnMin= 3 EnMin= -1297.80449827035     IErMin= 3 ErrMin= 4.21D-03
 ErrMax= 4.21D-03  0.00D+00 EMaxC= 1.00D-01 BMatC= 2.28D-02 BMatP= 6.11D-01
 IDIUse=3 WtCom= 9.58D-01 WtEn= 4.21D-02
 Coeff-Com:  0.662D-01 0.188D+00 0.746D+00
 Coeff-En:   0.000D+00 0.000D+00 0.100D+01
 Coeff:      0.634D-01 0.180D+00 0.757D+00
 Gap=     0.390 Goal=   None    Shift=    0.000
 RMSDP=2.74D-04 MaxDP=1.12D-02 DE=-3.92D-01 OVMax= 1.32D-02

 Cycle   4  Pass 0  IDiag  1:
 RMSU=  1.91D-04    CP:  1.02D+00  5.21D-01  7.07D-01
 E= -1297.81774908807     Delta-E=       -0.013250817716 Rises=F Damp=F
 DIIS: error= 1.35D-03 at cycle   4 NSaved=   4.
 NSaved= 4 IEnMin= 4 EnMin= -1297.81774908807     IErMin= 4 ErrMin= 1.35D-03
 ErrMax= 1.35D-03  0.00D+00 EMaxC= 1.00D-01 BMatC= 2.76D-03 BMatP= 2.28D-02
 IDIUse=3 WtCom= 9.86D-01 WtEn= 1.35D-02
 Coeff-Com:  0.285D-02 0.473D-01 0.346D+00 0.604D+00
 Coeff-En:   0.000D+00 0.000D+00 0.507D-01 0.949D+00
 Coeff:      0.281D-02 0.466D-01 0.342D+00 0.608D+00
 Gap=     0.380 Goal=   None    Shift=    0.000
 RMSDP=1.03D-04 MaxDP=3.57D-03 DE=-1.33D-02 OVMax= 4.65D-03

 Cycle   5  Pass 0  IDiag  1:
 RMSU=  3.64D-05    CP:  1.01D+00  5.14D-01  8.07D-01  5.70D-01
 E= -1297.82016489434     Delta-E=       -0.002415806267 Rises=F Damp=F
 DIIS: error= 1.35D-04 at cycle   5 NSaved=   5.
 NSaved= 5 IEnMin= 5 EnMin= -1297.82016489434     IErMin= 5 ErrMin= 1.35D-04
 ErrMax= 1.35D-04  0.00D+00 EMaxC= 1.00D-01 BMatC= 3.80D-05 BMatP= 2.76D-03
 IDIUse=3 WtCom= 9.99D-01 WtEn= 1.35D-03
 Coeff-Com: -0.194D-02 0.525D-02 0.571D-01 0.162D+00 0.777D+00
 Coeff-En:   0.000D+00 0.000D+00 0.000D+00 0.000D+00 0.100D+01
 Coeff:     -0.194D-02 0.524D-02 0.570D-01 0.162D+00 0.778D+00
 Gap=     0.380 Goal=   None    Shift=    0.000
 RMSDP=1.46D-05 MaxDP=6.71D-04 DE=-2.42D-03 OVMax= 7.04D-04

 Cycle   6  Pass 0  IDiag  1:
 RMSU=  9.77D-06    CP:  1.01D+00  5.15D-01  8.08D-01  6.15D-01  8.44D-01
 E= -1297.82019089247     Delta-E=       -0.000025998134 Rises=F Damp=F
 DIIS: error= 8.22D-05 at cycle   6 NSaved=   6.
 NSaved= 6 IEnMin= 6 EnMin= -1297.82019089247     IErMin= 6 ErrMin= 8.22D-05
 ErrMax= 8.22D-05  0.00D+00 EMaxC= 1.00D-01 BMatC= 5.85D-06 BMatP= 3.80D-05
 IDIUse=1 WtCom= 1.00D+00 WtEn= 0.00D+00
 Coeff-Com: -0.103D-02 0.222D-03 0.101D-01 0.478D-01 0.350D+00 0.593D+00
 Coeff:     -0.103D-02 0.222D-03 0.101D-01 0.478D-01 0.350D+00 0.593D+00
 Gap=     0.380 Goal=   None    Shift=    0.000
 RMSDP=4.41D-06 MaxDP=2.77D-04 DE=-2.60D-05 OVMax= 3.07D-04

 Initial convergence to 1.0D-05 achieved.  Increase integral accuracy.
 Cycle   7  Pass 1  IDiag  1:
 E= -1297.81998725324     Delta-E=        0.000203639233 Rises=F Damp=F
 DIIS: error= 2.77D-05 at cycle   1 NSaved=   1.
 NSaved= 1 IEnMin= 1 EnMin= -1297.81998725324     IErMin= 1 ErrMin= 2.77D-05
 ErrMax= 2.77D-05  0.00D+00 EMaxC= 1.00D-01 BMatC= 1.23D-06 BMatP= 1.23D-06
 IDIUse=1 WtCom= 1.00D+00 WtEn= 0.00D+00
 Coeff-Com:  0.100D+01
 Coeff:      0.100D+01
 Gap=     0.380 Goal=   None    Shift=    0.000
 RMSDP=4.41D-06 MaxDP=2.77D-04 DE= 2.04D-04 OVMax= 1.71D-04

 Cycle   8  Pass 1  IDiag  1:
 RMSU=  1.46D-05    CP:  1.00D+00
 E= -1297.81998792604     Delta-E=       -0.000000672800 Rises=F Damp=F
 DIIS: error= 3.23D-05 at cycle   2 NSaved=   2.
 NSaved= 2 IEnMin= 2 EnMin= -1297.81998792604     IErMin= 1 ErrMin= 2.77D-05
 ErrMax= 3.23D-05  0.00D+00 EMaxC= 1.00D-01 BMatC= 7.53D-07 BMatP= 1.23D-06
 IDIUse=1 WtCom= 1.00D+00 WtEn= 0.00D+00
 Coeff-Com:  0.419D+00 0.581D+00
 Coeff:      0.419D+00 0.581D+00
 Gap=     0.380 Goal=   None    Shift=    0.000
 RMSDP=1.63D-06 MaxDP=1.25D-04 DE=-6.73D-07 OVMax= 1.18D-04

 Cycle   9  Pass 1  IDiag  1:
 RMSU=  1.63D-06    CP:  1.00D+00  1.00D+00
 E= -1297.81998835712     Delta-E=       -0.000000431080 Rises=F Damp=F
 DIIS: error= 1.19D-05 at cycle   3 NSaved=   3.
 NSaved= 3 IEnMin= 3 EnMin= -1297.81998835712     IErMin= 3 ErrMin= 1.19D-05
 ErrMax= 1.19D-05  0.00D+00 EMaxC= 1.00D-01 BMatC= 1.03D-07 BMatP= 7.53D-07
 IDIUse=1 WtCom= 1.00D+00 WtEn= 0.00D+00
 Coeff-Com: -0.271D-01 0.261D+00 0.766D+00
 Coeff:     -0.271D-01 0.261D+00 0.766D+00
 Gap=     0.380 Goal=   None    Shift=    0.000
 RMSDP=5.86D-07 MaxDP=3.27D-05 DE=-4.31D-07 OVMax= 3.37D-05

 Cycle  10  Pass 1  IDiag  1:
 RMSU=  2.66D-07    CP:  1.00D+00  1.02D+00  7.49D-01
 E= -1297.81998842783     Delta-E=       -0.000000070712 Rises=F Damp=F
 DIIS: error= 7.99D-07 at cycle   4 NSaved=   4.
 NSaved= 4 IEnMin= 4 EnMin= -1297.81998842783     IErMin= 4 ErrMin= 7.99D-07
 ErrMax= 7.99D-07  0.00D+00 EMaxC= 1.00D-01 BMatC= 7.62D-10 BMatP= 1.03D-07
 IDIUse=1 WtCom= 1.00D+00 WtEn= 0.00D+00
 Coeff-Com: -0.112D-01 0.602D-01 0.197D+00 0.754D+00
 Coeff:     -0.112D-01 0.602D-01 0.197D+00 0.754D+00
 Gap=     0.380 Goal=   None    Shift=    0.000
 RMSDP=7.87D-08 MaxDP=2.77D-06 DE=-7.07D-08 OVMax= 4.84D-06

 Cycle  11  Pass 1  IDiag  1:
 RMSU=  7.54D-08    CP:  1.00D+00  1.02D+00  7.61D-01  1.01D+00
 E= -1297.81998842835     Delta-E=       -0.000000000523 Rises=F Damp=F
 DIIS: error= 3.41D-07 at cycle   5 NSaved=   5.
 NSaved= 5 IEnMin= 5 EnMin= -1297.81998842835     IErMin= 5 ErrMin= 3.41D-07
 ErrMax= 3.41D-07  0.00D+00 EMaxC= 1.00D-01 BMatC= 2.30D-10 BMatP= 7.62D-10
 IDIUse=1 WtCom= 1.00D+00 WtEn= 0.00D+00
 Coeff-Com: -0.712D-03-0.142D-01-0.340D-01 0.335D+00 0.714D+00
 Coeff:     -0.712D-03-0.142D-01-0.340D-01 0.335D+00 0.714D+00
 Gap=     0.380 Goal=   None    Shift=    0.000
 RMSDP=2.93D-08 MaxDP=1.61D-06 DE=-5.23D-10 OVMax= 1.82D-06

 Cycle  12  Pass 1  IDiag  1:
 RMSU=  1.87D-08    CP:  1.00D+00  1.02D+00  7.61D-01  1.09D+00  8.99D-01
 E= -1297.81998842864     Delta-E=       -0.000000000285 Rises=F Damp=F
 DIIS: error= 1.03D-07 at cycle   6 NSaved=   6.
 NSaved= 6 IEnMin= 6 EnMin= -1297.81998842864     IErMin= 6 ErrMin= 1.03D-07
 ErrMax= 1.03D-07  0.00D+00 EMaxC= 1.00D-01 BMatC= 1.44D-11 BMatP= 2.30D-10
 IDIUse=1 WtCom= 1.00D+00 WtEn= 0.00D+00
 Coeff-Com:  0.810D-03-0.110D-01-0.321D-01 0.534D-01 0.258D+00 0.731D+00
 Coeff:      0.810D-03-0.110D-01-0.321D-01 0.534D-01 0.258D+00 0.731D+00
 Gap=     0.380 Goal=   None    Shift=    0.000
 RMSDP=9.00D-09 MaxDP=3.48D-07 DE=-2.85D-10 OVMax= 7.13D-07

 SCF Done:  E(RM062X) =  -1297.81998843     A.U. after   12 cycles
            NFock= 12  Conv=0.90D-08     -V/T= 2.0029
 KE= 1.294100244419D+03 PE=-7.684998823139D+03 EE= 2.774106735885D+03
 Leave Link  502 at Thu Mar 16 18:07:37 2023, MaxMem=   262144000 cpu:            1313.2 elap:             164.9
 (Enter /dragofs/sw/campus/0.2/software/gaussian/16.gaussian/gaussian/g16_legacy/l601.exe)
 Copying SCF densities to generalized density rwf, IOpCl= 0 IROHF=0.

 **********************************************************************

            Population analysis using the SCF density.

 **********************************************************************

 Orbital symmetries:
       Occupied  (A) (A) (A) (A) (A) (A) (A) (A) (A) (A) (A) (A)
                 (A) (A) (A) (A) (A) (A) (A) (A) (A) (A) (A) (A)
                 (A) (A) (A) (A) (A) (A) (A) (A) (A) (A) (A) (A)
                 (A) (A) (A) (A) (A) (A) (A) (A) (A) (A) (A) (A)
                 (A) (A) (A) (A) (A) (A) (A) (A) (A) (A) (A) (A)
                 (A) (A) (A) (A) (A) (A) (A) (A) (A) (A) (A) (A)
                 (A) (A) (A) (A) (A) (A) (A) (A) (A) (A) (A) (A)
                 (A) (A) (A) (A) (A) (A) (A)
       Virtual   (A) (A) (A) (A) (A) (A) (A) (A) (A) (A) (A) (A)
                 (A) (A) (A) (A) (A) (A) (A) (A) (A) (A) (A) (A)
                 (A) (A) (A) (A) (A) (A) (A) (A) (A) (A) (A) (A)
                 (A) (A) (A) (A) (A) (A) (A) (A) (A) (A) (A) (A)
                 (A) (A) (A) (A) (A) (A) (A) (A) (A) (A) (A) (A)
                 (A) (A) (A) (A) (A) (A) (A) (A) (A) (A) (A) (A)
                 (A) (A) (A) (A) (A) (A) (A) (A) (A) (A) (A) (A)
                 (A) (A) (A) (A) (A) (A) (A) (A) (A) (A) (A) (A)
                 (A) (A) (A) (A) (A) (A) (A) (A) (A) (A) (A) (A)
                 (A) (A) (A) (A) (A) (A) (A) (A) (A) (A) (A) (A)
                 (A) (A) (A) (A) (A) (A) (A) (A) (A) (A) (A) (A)
                 (A) (A) (A) (A) (A) (A) (A) (A) (A) (A) (A) (A)
                 (A) (A) (A) (A) (A) (A) (A) (A) (A) (A) (A) (A)
                 (A) (A) (A) (A) (A) (A) (A) (A) (A) (A) (A) (A)
                 (A) (A) (A) (A) (A) (A) (A) (A) (A) (A) (A) (A)
                 (A) (A) (A) (A) (A) (A) (A) (A) (A) (A) (A) (A)
                 (A) (A) (A) (A) (A) (A) (A) (A) (A) (A) (A) (A)
                 (A) (A) (A) (A) (A) (A) (A) (A) (A) (A) (A) (A)
                 (A) (A) (A) (A) (A) (A) (A) (A) (A) (A) (A) (A)
                 (A) (A) (A) (A) (A) (A) (A) (A) (A) (A) (A) (A)
                 (A) (A) (A) (A) (A) (A) (A) (A) (A) (A) (A) (A)
                 (A) (A) (A) (A) (A) (A) (A) (A) (A) (A) (A) (A)
                 (A) (A) (A) (A) (A) (A) (A) (A) (A) (A) (A) (A)
                 (A) (A) (A) (A) (A) (A) (A) (A) (A) (A) (A) (A)
                 (A) (A) (A) (A) (A) (A) (A) (A) (A) (A) (A) (A)
                 (A) (A) (A) (A) (A) (A) (A) (A) (A) (A) (A) (A)
                 (A) (A) (A) (A) (A) (A) (A) (A) (A) (A) (A) (A)
                 (A) (A) (A) (A) (A) (A) (A) (A) (A) (A) (A) (A)
                 (A) (A) (A) (A) (A) (A) (A) (A) (A) (A) (A) (A)
                 (A) (A) (A) (A) (A) (A) (A) (A) (A) (A) (A) (A)
                 (A) (A) (A) (A) (A) (A) (A) (A) (A) (A) (A) (A)
                 (A) (A) (A) (A) (A) (A) (A) (A) (A) (A) (A) (A)
                 (A) (A) (A) (A) (A) (A) (A) (A) (A) (A) (A) (A)
                 (A) (A) (A) (A) (A) (A) (A) (A) (A) (A) (A) (A)
                 (A) (A) (A) (A) (A) (A) (A) (A) (A) (A) (A) (A)
                 (A) (A) (A) (A) (A) (A) (A) (A) (A) (A) (A) (A)
                 (A) (A) (A) (A) (A) (A) (A) (A) (A) (A) (A) (A)
                 (A) (A) (A) (A) (A) (A) (A) (A) (A) (A) (A)
 The electronic state is 1-A.
 Alpha  occ. eigenvalues --  -19.67135 -19.66079 -19.65104 -19.64819 -19.64304
 Alpha  occ. eigenvalues --  -19.63833 -19.63773 -19.63039 -19.62827 -19.61668
 Alpha  occ. eigenvalues --  -19.61295 -10.66970 -10.65655 -10.62283 -10.61826
 Alpha  occ. eigenvalues --  -10.61385 -10.61322 -10.60916 -10.60874 -10.60653
 Alpha  occ. eigenvalues --  -10.60623 -10.59440 -10.58867  -1.24366  -1.22290
 Alpha  occ. eigenvalues --   -1.19117  -1.18741  -1.17899  -1.16926  -1.16167
 Alpha  occ. eigenvalues --   -1.15326  -1.15266  -1.14513  -1.13881  -0.92622
 Alpha  occ. eigenvalues --   -0.90813  -0.88889  -0.88264  -0.81478  -0.78741
 Alpha  occ. eigenvalues --   -0.76372  -0.73796  -0.72564  -0.72087  -0.70377
 Alpha  occ. eigenvalues --   -0.69992  -0.65601  -0.65131  -0.64509  -0.62857
 Alpha  occ. eigenvalues --   -0.62252  -0.61316  -0.59539  -0.59111  -0.58991
 Alpha  occ. eigenvalues --   -0.57789  -0.57036  -0.56470  -0.55720  -0.54926
 Alpha  occ. eigenvalues --   -0.54359  -0.53662  -0.52833  -0.51364  -0.51158
 Alpha  occ. eigenvalues --   -0.50351  -0.50163  -0.49073  -0.47901  -0.47444
 Alpha  occ. eigenvalues --   -0.46635  -0.46266  -0.45469  -0.45178  -0.43982
 Alpha  occ. eigenvalues --   -0.43476  -0.43013  -0.42569  -0.41243  -0.40752
 Alpha  occ. eigenvalues --   -0.39541  -0.39181  -0.38726  -0.37550  -0.37457
 Alpha  occ. eigenvalues --   -0.36388  -0.36271  -0.35970  -0.35304  -0.35031
 Alpha  occ. eigenvalues --   -0.34459
 Alpha virt. eigenvalues --    0.03512   0.05117   0.06112   0.06574   0.06961
 Alpha virt. eigenvalues --    0.07504   0.08609   0.09506   0.10316   0.10585
 Alpha virt. eigenvalues --    0.10787   0.11056   0.11911   0.12574   0.13190
 Alpha virt. eigenvalues --    0.14006   0.14840   0.15164   0.15999   0.16268
 Alpha virt. eigenvalues --    0.16686   0.17328   0.18380   0.18556   0.19134
 Alpha virt. eigenvalues --    0.21113   0.22103   0.22243   0.23749   0.23879
 Alpha virt. eigenvalues --    0.24918   0.25103   0.25557   0.26245   0.26942
 Alpha virt. eigenvalues --    0.27929   0.29355   0.30210   0.31078   0.31885
 Alpha virt. eigenvalues --    0.32814   0.33658   0.34383   0.34743   0.36170
 Alpha virt. eigenvalues --    0.36704   0.39033   0.39348   0.40086   0.40705
 Alpha virt. eigenvalues --    0.41147   0.41755   0.42625   0.42814   0.43779
 Alpha virt. eigenvalues --    0.44350   0.45930   0.46503   0.46699   0.47052
 Alpha virt. eigenvalues --    0.48851   0.49026   0.49398   0.49704   0.50200
 Alpha virt. eigenvalues --    0.50459   0.51339   0.51838   0.52895   0.53106
 Alpha virt. eigenvalues --    0.53593   0.54618   0.55201   0.55902   0.56114
 Alpha virt. eigenvalues --    0.56610   0.57130   0.58051   0.58469   0.59187
 Alpha virt. eigenvalues --    0.60475   0.60630   0.61247   0.62192   0.62645
 Alpha virt. eigenvalues --    0.62778   0.63071   0.63729   0.64059   0.64729
 Alpha virt. eigenvalues --    0.65099   0.65433   0.66170   0.66642   0.67604
 Alpha virt. eigenvalues --    0.67807   0.68423   0.68917   0.69312   0.70416
 Alpha virt. eigenvalues --    0.71518   0.74256   0.76055   0.78476   0.79725
 Alpha virt. eigenvalues --    0.82004   0.83693   0.84737   0.85390   0.87178
 Alpha virt. eigenvalues --    0.87761   0.88634   0.89826   0.90154   0.90588
 Alpha virt. eigenvalues --    0.92169   0.92799   0.93203   0.93335   0.94806
 Alpha virt. eigenvalues --    0.96116   0.96353   0.97316   0.97369   0.99035
 Alpha virt. eigenvalues --    0.99603   0.99861   1.00893   1.01446   1.02197
 Alpha virt. eigenvalues --    1.02931   1.04063   1.04921   1.05736   1.07609
 Alpha virt. eigenvalues --    1.08429   1.09939   1.10868   1.11086   1.12530
 Alpha virt. eigenvalues --    1.13005   1.13337   1.14003   1.14355   1.15693
 Alpha virt. eigenvalues --    1.16606   1.17557   1.18004   1.18419   1.20659
 Alpha virt. eigenvalues --    1.21789   1.22934   1.23394   1.26483   1.27252
 Alpha virt. eigenvalues --    1.27621   1.29635   1.31621   1.32950   1.33847
 Alpha virt. eigenvalues --    1.35460   1.37608   1.38855   1.40443   1.41585
 Alpha virt. eigenvalues --    1.42243   1.42529   1.43911   1.44549   1.45571
 Alpha virt. eigenvalues --    1.46033   1.46567   1.48690   1.49240   1.50504
 Alpha virt. eigenvalues --    1.50735   1.51319   1.51785   1.51983   1.52706
 Alpha virt. eigenvalues --    1.53271   1.53988   1.55091   1.55908   1.56396
 Alpha virt. eigenvalues --    1.56730   1.57081   1.57970   1.58226   1.58596
 Alpha virt. eigenvalues --    1.59289   1.59928   1.60577   1.61405   1.62149
 Alpha virt. eigenvalues --    1.62862   1.63224   1.63344   1.64464   1.65699
 Alpha virt. eigenvalues --    1.66318   1.67606   1.67828   1.68650   1.69234
 Alpha virt. eigenvalues --    1.69728   1.70706   1.71766   1.73464   1.73706
 Alpha virt. eigenvalues --    1.74694   1.76340   1.77200   1.77728   1.79079
 Alpha virt. eigenvalues --    1.79233   1.80544   1.81255   1.82489   1.83230
 Alpha virt. eigenvalues --    1.83616   1.85216   1.86035   1.86557   1.87476
 Alpha virt. eigenvalues --    1.88237   1.89262   1.90196   1.91786   1.92605
 Alpha virt. eigenvalues --    1.93939   1.94895   1.95586   1.96273   1.97769
 Alpha virt. eigenvalues --    1.97874   1.99582   1.99651   2.01828   2.03250
 Alpha virt. eigenvalues --    2.03763   2.04864   2.05600   2.06060   2.07158
 Alpha virt. eigenvalues --    2.08022   2.08618   2.08864   2.10643   2.10943
 Alpha virt. eigenvalues --    2.11504   2.12736   2.13973   2.14962   2.15229
 Alpha virt. eigenvalues --    2.16520   2.16634   2.18034   2.18437   2.19195
 Alpha virt. eigenvalues --    2.19956   2.22011   2.22872   2.24392   2.25467
 Alpha virt. eigenvalues --    2.26493   2.29338   2.29795   2.31318   2.32746
 Alpha virt. eigenvalues --    2.34391   2.35210   2.40453   2.42667   2.43793
 Alpha virt. eigenvalues --    2.44843   2.45500   2.48402   2.49766   2.50230
 Alpha virt. eigenvalues --    2.51006   2.52727   2.53394   2.54185   2.54837
 Alpha virt. eigenvalues --    2.55710   2.57307   2.57881   2.58253   2.59433
 Alpha virt. eigenvalues --    2.59824   2.61336   2.63650   2.64382   2.65347
 Alpha virt. eigenvalues --    2.69349   2.75688   2.76495   2.77123   2.78507
 Alpha virt. eigenvalues --    2.79821   2.80427   2.81698   2.82936   2.84590
 Alpha virt. eigenvalues --    2.85717   2.86628   2.87042   2.89507   2.91988
 Alpha virt. eigenvalues --    2.93040   2.93779   2.95686   2.96604   2.97727
 Alpha virt. eigenvalues --    2.99514   2.99722   3.00530   3.01266   3.02592
 Alpha virt. eigenvalues --    3.02891   3.05342   3.05710   3.08444   3.10313
 Alpha virt. eigenvalues --    3.11856   3.12589   3.13458   3.15549   3.16667
 Alpha virt. eigenvalues --    3.17819   3.18103   3.19134   3.19855   3.20481
 Alpha virt. eigenvalues --    3.20790   3.21344   3.21736   3.22557   3.23282
 Alpha virt. eigenvalues --    3.23883   3.24893   3.25484   3.26457   3.29342
 Alpha virt. eigenvalues --    3.29954   3.31861   3.32616   3.33854   3.35307
 Alpha virt. eigenvalues --    3.36066   3.36235   3.38020   3.39564   3.39788
 Alpha virt. eigenvalues --    3.40900   3.42729   3.43752   3.45535   3.46580
 Alpha virt. eigenvalues --    3.48142   3.52461   3.54431   3.55312   3.58052
[...]
    31  O    0.000007  -0.000253   0.000002  -0.000000  -0.000000  -0.048638
    32  H   -0.000020   0.000007   0.000000   0.000000  -0.000000  -0.009195
    33  C   -0.000140   0.000245   0.000009   0.000000  -0.000000  -0.047894
    34  H    0.000015  -0.000566   0.000009   0.000001  -0.000000  -0.001724
    35  O    0.000000   0.000003  -0.000000   0.000000   0.000000   0.006981
    36  H   -0.000000   0.000003  -0.000000  -0.000000   0.000000   0.001671
    37  C    0.000409   0.000583   0.000028  -0.000000   0.000000   0.001368
    38  H    0.000003  -0.000087   0.000013  -0.000000  -0.000000  -0.000181
    39  O   -0.000000  -0.000039   0.000001  -0.000000  -0.000000  -0.000502
    40  H    0.000000   0.000004  -0.000000   0.000000   0.000000  -0.000314
    41  C   -0.000702  -0.000258  -0.000442   0.000001  -0.000000   0.004628
    42  H   -0.000011  -0.000010  -0.000066   0.000000   0.000000  -0.000135
    43  H   -0.000022  -0.000004   0.000302   0.000000  -0.000000  -0.001038
    44  O    0.000917   0.000467   0.005408   0.000012  -0.000008  -0.000936
    45  H    0.002428  -0.000430   0.000303  -0.000161  -0.000004  -0.000308
              25         26         27         28         29         30
     1  C   -0.000058   0.000000  -0.000000  -0.000001  -0.000000  -0.000001
     2  H    0.000006   0.000000  -0.000000  -0.000001   0.000001   0.000000
     3  O    0.000000   0.000000   0.000000   0.000000  -0.000000   0.000000
     4  H    0.000000  -0.000000  -0.000000   0.000000   0.000000   0.000000
     5  C    0.010523  -0.000356   0.000577  -0.010439  -0.000061   0.000208
     6  H   -0.000915  -0.000000  -0.000015   0.000246  -0.000561  -0.000018
     7  O   -0.000175   0.000002  -0.000001   0.000015   0.000002  -0.000001
     8  C    0.000040   0.000000   0.000000   0.000020   0.000008   0.000003
     9  H   -0.000010   0.000000  -0.000000  -0.000024   0.000000  -0.000001
    10  O   -0.000000   0.000000   0.000000   0.000000  -0.000000  -0.000000
    11  H    0.000000   0.000000  -0.000000   0.000000  -0.000000  -0.000000
    12  C   -0.001228  -0.000014  -0.000022   0.000205   0.000049  -0.000267
    13  H   -0.000209  -0.000000  -0.000001   0.000052  -0.000108  -0.000032
    14  O   -0.000014  -0.000001   0.000000  -0.000030   0.000021   0.000058
    15  H    0.000338   0.000012   0.000002   0.000064  -0.000142   0.000871
    16  C   -0.013293   0.000190  -0.000556   0.001851   0.006077  -0.000288
    17  H   -0.000234  -0.001124   0.000146   0.010101  -0.000522  -0.000115
    18  O   -0.048689   0.003559  -0.000093  -0.049035  -0.040161   0.002490
    19  C   -0.007326  -0.000032  -0.000331   0.011116   0.000913  -0.000065
    20  H   -0.006883   0.001173  -0.001832   0.001796   0.001749  -0.000243
    21  H   -0.000299   0.000843   0.000520  -0.001581  -0.000200   0.000007
    22  O   -0.000379  -0.000006  -0.000071   0.000035  -0.000002   0.000000
    23  H    0.000034  -0.000001  -0.000005  -0.000004   0.000003  -0.000000
    24  C    0.386612  -0.076571  -0.011617   0.219931   0.209322  -0.055977
    25  H    0.628813  -0.002371   0.012327  -0.058448  -0.064012   0.015053
    26  C   -0.002371   5.447219   0.380192   0.201953  -0.011036   0.001153
    27  H    0.012327   0.380192   0.553691  -0.042372   0.002832   0.000621
    28  O   -0.058448   0.201953  -0.042372   8.220800  -0.027094   0.002723
    29  C   -0.064012  -0.011036   0.002832  -0.027094   5.258631   0.384839
    30  H    0.015053   0.001153   0.000621   0.002723   0.384839   0.564082
    31  O    0.014127   0.000161  -0.000058   0.001853   0.247887  -0.035393
    32  H   -0.001150   0.000035   0.000022   0.000390  -0.040709  -0.005188
    33  C   -0.007421  -0.027961  -0.014834  -0.007385   0.208564  -0.049237
    34  H    0.007097  -0.002798   0.005794   0.000360  -0.045577   0.010035
    35  O   -0.000310   0.003213  -0.000179  -0.000061  -0.041714   0.004273
    36  H   -0.000138  -0.000848  -0.000078  -0.000028  -0.010798  -0.001531
    37  C   -0.003474   0.127634  -0.054164  -0.038357  -0.067251  -0.001164
    38  H    0.000339  -0.048866   0.010796   0.002572   0.001865   0.006955
    39  O    0.000036  -0.049348   0.009255   0.001405   0.006847  -0.000024
    40  H   -0.000036   0.011620  -0.000846  -0.000239   0.001563  -0.000066
    41  C    0.000949   0.290515  -0.028944  -0.040628  -0.001309  -0.000078
    42  H    0.000092  -0.040864  -0.006500   0.004154   0.000003   0.000014
    43  H    0.000075  -0.066682   0.011234  -0.001337  -0.000012   0.000002
    44  O   -0.000269  -0.039160   0.005279  -0.004386  -0.000021   0.000001
    45  H    0.000065  -0.009551  -0.002521   0.013841   0.000064  -0.000005
              31         32         33         34         35         36
     1  C   -0.000000  -0.000003  -0.000000   0.000000   0.000000   0.000000
     2  H   -0.000000  -0.000005  -0.000000   0.000000   0.000000   0.000000
     3  O   -0.000000  -0.000000  -0.000000   0.000000   0.000000  -0.000000
     4  H   -0.000000   0.000000   0.000000   0.000000  -0.000000  -0.000000
     5  C   -0.000107   0.000046   0.000047  -0.000014  -0.000000   0.000000
     6  H    0.000033   0.000177   0.000022  -0.000001  -0.000000  -0.000000
     7  O   -0.000000  -0.000000  -0.000000  -0.000000   0.000000   0.000000
     8  C   -0.000000   0.000021   0.000000  -0.000000   0.000000   0.000000
     9  H   -0.000000  -0.000000   0.000000   0.000000  -0.000000   0.000000
    10  O    0.000000  -0.000000   0.000000  -0.000000  -0.000000  -0.000000
    11  H   -0.000000  -0.000001  -0.000000   0.000000  -0.000000   0.000000
    12  C   -0.000027   0.000030   0.000006  -0.000001   0.000000   0.000000
    13  H    0.000034   0.000338   0.000004   0.000000  -0.000000  -0.000000
    14  O    0.000000   0.000021  -0.000000  -0.000000   0.000000   0.000000
    15  H    0.000034   0.000147   0.000043  -0.000000  -0.000001  -0.000001
    16  C    0.000180  -0.000891  -0.000150   0.000026   0.000001  -0.000001
    17  H   -0.000028   0.000164  -0.000110  -0.000009   0.000000   0.000000
    18  O   -0.002239   0.012878   0.003800  -0.000151  -0.000015  -0.000012
    19  C    0.000007  -0.000020  -0.000140   0.000015   0.000000  -0.000000
    20  H   -0.000253   0.000007   0.000245  -0.000566   0.000003   0.000003
    21  H    0.000002   0.000000   0.000009   0.000009  -0.000000  -0.000000
    22  O   -0.000000   0.000000   0.000000   0.000001   0.000000  -0.000000
    23  H   -0.000000  -0.000000  -0.000000  -0.000000   0.000000   0.000000
    24  C   -0.048638  -0.009195  -0.047894  -0.001724   0.006981   0.001671
    25  H    0.014127  -0.001150  -0.007421   0.007097  -0.000310  -0.000138
    26  C    0.000161   0.000035  -0.027961  -0.002798   0.003213  -0.000848
    27  H   -0.000058   0.000022  -0.014834   0.005794  -0.000179  -0.000078
    28  O    0.001853   0.000390  -0.007385   0.000360  -0.000061  -0.000028
    29  C    0.247887  -0.040709   0.208564  -0.045577  -0.041714  -0.010798
    30  H   -0.035393  -0.005188  -0.049237   0.010035   0.004273  -0.001531
    31  O    7.959203   0.323855  -0.047175   0.001479  -0.001900   0.013957
    32  H    0.323855   0.439590   0.010048  -0.000650  -0.000425  -0.000703
    33  C   -0.047175   0.010048   5.301342   0.379082   0.243760  -0.040935
    34  H    0.001479  -0.000650   0.379082   0.560325  -0.035936  -0.004780
    35  O   -0.001900  -0.000425   0.243760  -0.035936   7.967136   0.325345
    36  H    0.013957  -0.000703  -0.040935  -0.004780   0.325345   0.430864
    37  C    0.004135  -0.000700   0.213620  -0.049035  -0.049706   0.012321
    38  H   -0.000227  -0.000020  -0.055945   0.011056   0.003327  -0.000786
    39  O   -0.000016   0.000007  -0.030087   0.005944  -0.003684  -0.000451
    40  H   -0.000021   0.000006  -0.005487  -0.001408   0.016101  -0.000897
    41  C    0.000008  -0.000001   0.006346  -0.000713  -0.000053   0.000024
    42  H    0.000000  -0.000000   0.000088   0.000015  -0.000004   0.000002
    43  H    0.000001   0.000001  -0.000358  -0.000071  -0.000009  -0.000002
    44  O    0.000000   0.000000  -0.000174   0.000001   0.000000  -0.000000
    45  H   -0.000001   0.000000   0.000026  -0.000005  -0.000000   0.000000
              37         38         39         40         41         42
     1  C    0.000000   0.000000   0.000000  -0.000000  -0.000000   0.000000
     2  H    0.000000  -0.000000  -0.000000  -0.000000   0.000000   0.000000
     3  O    0.000000  -0.000000   0.000000  -0.000000  -0.000000  -0.000000
     4  H   -0.000000  -0.000000   0.000000   0.000000   0.000000   0.000000
     5  C   -0.000089   0.000001   0.000000  -0.000000   0.000112  -0.000002
     6  H   -0.000016   0.000000   0.000000  -0.000000   0.000008  -0.000000
     7  O    0.000000  -0.000000  -0.000000   0.000000   0.000000   0.000000
     8  C   -0.000000  -0.000000   0.000000   0.000000   0.000000  -0.000000
     9  H   -0.000000  -0.000000   0.000000  -0.000000   0.000000  -0.000000
    10  O    0.000000   0.000000  -0.000000   0.000000  -0.000000   0.000000
    11  H    0.000000   0.000000  -0.000000   0.000000  -0.000000   0.000000
    12  C    0.000004  -0.000002  -0.000000   0.000000   0.000000   0.000000
    13  H   -0.000001   0.000000   0.000000  -0.000000   0.000001  -0.000000
    14  O   -0.000000  -0.000000  -0.000000  -0.000000   0.000000   0.000000
    15  H   -0.000011  -0.000007   0.000000   0.000000   0.000000  -0.000000
    16  C    0.000139  -0.000014  -0.000000  -0.000000  -0.000102   0.000002
    17  H    0.000148   0.000019  -0.000000   0.000000   0.000549   0.000011
    18  O   -0.000620  -0.000076   0.000000   0.000001  -0.000155   0.000004
    19  C    0.000409   0.000003  -0.000000   0.000000  -0.000702  -0.000011
    20  H    0.000583  -0.000087  -0.000039   0.000004  -0.000258  -0.000010
    21  H    0.000028   0.000013   0.000001  -0.000000  -0.000442  -0.000066
    22  O   -0.000000  -0.000000  -0.000000   0.000000   0.000001   0.000000
    23  H    0.000000  -0.000000  -0.000000   0.000000  -0.000000   0.000000
    24  C    0.001368  -0.000181  -0.000502  -0.000314   0.004628  -0.000135
    25  H   -0.003474   0.000339   0.000036  -0.000036   0.000949   0.000092
    26  C    0.127634  -0.048866  -0.049348   0.011620   0.290515  -0.040864
    27  H   -0.054164   0.010796   0.009255  -0.000846  -0.028944  -0.006500
    28  O   -0.038357   0.002572   0.001405  -0.000239  -0.040628   0.004154
    29  C   -0.067251   0.001865   0.006847   0.001563  -0.001309   0.000003
    30  H   -0.001164   0.006955  -0.000024  -0.000066  -0.000078   0.000014
    31  O    0.004135  -0.000227  -0.000016  -0.000021   0.000008   0.000000
    32  H   -0.000700  -0.000020   0.000007   0.000006  -0.000001  -0.000000
    33  C    0.213620  -0.055945  -0.030087  -0.005487   0.006346   0.000088
    34  H   -0.049035   0.011056   0.005944  -0.001408  -0.000713   0.000015
    35  O   -0.049706   0.003327  -0.003684   0.016101  -0.000053  -0.000004
    36  H    0.012321  -0.000786  -0.000451  -0.000897   0.000024   0.000002
    37  C    5.338634   0.383432   0.224320  -0.047150  -0.046481  -0.003892
    38  H    0.383432   0.572139  -0.033641  -0.004338  -0.010446   0.000172
    39  O    0.224320  -0.033641   7.960397   0.322361  -0.000792   0.011803
    40  H   -0.047150  -0.004338   0.322361   0.435390  -0.000303  -0.000199
    41  C   -0.046481  -0.010446  -0.000792  -0.000303   4.794684   0.401350
    42  H   -0.003892   0.000172   0.011803  -0.000199   0.401350   0.524714
    43  H    0.001872   0.006210  -0.000429  -0.000135   0.410288  -0.034407
    44  O    0.004948  -0.000037   0.000014   0.000011   0.282406  -0.027683
    45  H   -0.000584  -0.000180  -0.000017   0.000006  -0.046377   0.008866
              43         44         45
     1  C   -0.000000   0.000000  -0.000002
     2  H    0.000000   0.000000  -0.000003
     3  O   -0.000000  -0.000000   0.000000
     4  H    0.000000  -0.000000  -0.000001
     5  C    0.000025   0.000008  -0.000891
     6  H   -0.000000  -0.000009  -0.000017
     7  O    0.000000   0.000000  -0.000137
     8  C    0.000000  -0.000000   0.000003
     9  H   -0.000000   0.000000  -0.000037
    10  O    0.000000   0.000000  -0.000000
    11  H   -0.000000   0.000000   0.000000
    12  C   -0.000005   0.000001   0.000062
    13  H    0.000000   0.000000  -0.000007
    14  O    0.000000  -0.000000  -0.000008
    15  H    0.000002  -0.000000   0.000001
    16  C   -0.000045  -0.000019   0.001075
    17  H    0.000011   0.000104   0.000988
    18  O   -0.000008   0.000004  -0.000069
    19  C   -0.000022   0.000917   0.002428
    20  H   -0.000004   0.000467  -0.000430
    21  H    0.000302   0.005408   0.000303
    22  O    0.000000   0.000012  -0.000161
    23  H   -0.000000  -0.000008  -0.000004
    24  C   -0.001038  -0.000936  -0.000308
    25  H    0.000075  -0.000269   0.000065
    26  C   -0.066682  -0.039160  -0.009551
    27  H    0.011234   0.005279  -0.002521
    28  O   -0.001337  -0.004386   0.013841
    29  C   -0.000012  -0.000021   0.000064
    30  H    0.000002   0.000001  -0.000005
    31  O    0.000001   0.000000  -0.000001
    32  H    0.000001   0.000000   0.000000
    33  C   -0.000358  -0.000174   0.000026
    34  H   -0.000071   0.000001  -0.000005
    35  O   -0.000009   0.000000  -0.000000
    36  H   -0.000002  -0.000000   0.000000
    37  C    0.001872   0.004948  -0.000584
    38  H    0.006210  -0.000037  -0.000180
    39  O   -0.000429   0.000014  -0.000017
    40  H   -0.000135   0.000011   0.000006
    41  C    0.410288   0.282406  -0.046377
    42  H   -0.034407  -0.027683   0.008866
    43  H    0.593562  -0.037181  -0.011192
    44  O   -0.037181   7.891268   0.317140
    45  H   -0.011192   0.317140   0.476216
 Mulliken charges:
               1
     1  C    0.226114
     2  H    0.147379
     3  O   -0.372256
     4  H    0.251935
     5  C   -0.072895
     6  H    0.168268
     7  O   -0.413584
     8  C    0.013351
     9  H    0.139008
    10  O   -0.408165
    11  H    0.269419
    12  C   -0.045964
    13  H    0.155934
    14  O   -0.431723
    15  H    0.270601
    16  C    0.029237
    17  H    0.176177
    18  O   -0.439566
    19  C    0.001343
    20  H    0.143372
    21  H    0.127661
    22  O   -0.414808
    23  H    0.262728
    24  C    0.233183
    25  H    0.140816
    26  C   -0.091884
    27  H    0.171751
    28  O   -0.414031
    29  C    0.020054
    30  H    0.156307
    31  O   -0.430871
    32  H    0.271879
    33  C   -0.031758
    34  H    0.162198
    35  O   -0.436143
    36  H    0.277802
    37  C    0.049100
    38  H    0.155953
    39  O   -0.423360
    40  H    0.274376
    41  C   -0.014087
    42  H    0.162484
    43  H    0.129352
    44  O   -0.398108
    45  H    0.251424
 Sum of Mulliken charges =  -0.00000
 Mulliken charges with hydrogens summed into heavy atoms:
               1
     1  C    0.373493
     3  O   -0.120322
     5  C    0.095373
     7  O   -0.413584
     8  C    0.152358
    10  O   -0.138746
    12  C    0.109970
    14  O   -0.161121
    16  C    0.205414
    18  O   -0.439566
    19  C    0.272376
    22  O   -0.152080
    24  C    0.373999
    26  C    0.079867
    28  O   -0.414031
    29  C    0.176361
    31  O   -0.158992
    33  C    0.130439
    35  O   -0.158342
    37  C    0.205053
    39  O   -0.148984
    41  C    0.277748
    44  O   -0.146684
 Electronic spatial extent (au):  <R**2>=           8635.4171
 Charge=             -0.0000 electrons
 Dipole moment (field-independent basis, Debye):
    X=             -1.5830    Y=             -4.1184    Z=              1.2073  Tot=              4.5743
 Quadrupole moment (field-independent basis, Debye-Ang):
   XX=           -149.9796   YY=           -143.4240   ZZ=           -137.8545
   XY=              8.1091   XZ=              7.3990   YZ=              4.8276
 Traceless Quadrupole moment (field-independent basis, Debye-Ang):
   XX=             -6.2269   YY=              0.3287   ZZ=              5.8982
   XY=              8.1091   XZ=              7.3990   YZ=              4.8276
 Octapole moment (field-independent basis, Debye-Ang**2):
  XXX=           -104.2311  YYY=            -82.6548  ZZZ=             11.7464  XYY=             21.4475
  XXY=              9.7522  XXZ=             23.6798  XZZ=              4.4925  YZZ=            -17.7257
  YYZ=              4.1458  XYZ=             12.4488
 Hexadecapole moment (field-independent basis, Debye-Ang**3):
 XXXX=          -7992.8709 YYYY=          -2205.9785 ZZZZ=           -932.6361 XXXY=            247.8060
 XXXZ=            251.1946 YYYX=             92.6956 YYYZ=            -10.4730 ZZZX=             18.2537
 ZZZY=             21.4544 XXYY=          -1587.3664 XXZZ=          -1304.3169 YYZZ=           -550.7810
 XXYZ=             68.8686 YYXZ=             69.4665 ZZXY=              6.9511
 N-N= 2.320314566623D+03 E-N=-7.687693441476D+03  KE= 1.294103841745D+03
 No NMR shielding tensors so no spin-rotation constants.
 Leave Link  601 at Thu Mar 16 18:37:44 2023, MaxMem=   262144000 cpu:               1.7 elap:               0.3
 (Enter /dragofs/sw/campus/0.2/software/gaussian/16.gaussian/gaussian/g16_legacy/l9999.exe)
 1\1\GINC-DRAGO31010018\FOpt\RM062X\6-311G(d,p)\C12H22O11\JRAMOS\16-Mar
 -2023\0\\#p opt M062X/6-311g(d,p)\\Optimization 03-DIHEDRAL_PHI_PSI_14
 b/dimer14b_000_003.log\\0,1\C,-4.019078957,0.3717638437,0.4067426987\H
 ,-4.1079108063,-0.2105293584,1.3321163257\O,-5.1870192727,1.0861369155
 ,0.2739947302\H,-5.2151422959,1.4631372946,-0.6109589121\C,-1.67383287
 89,0.7252732266,0.8554162494\H,-1.7498582355,0.204019675,1.8216113189\
 O,-2.9363489075,1.2868642739,0.5084492158\C,-3.7189557558,-0.541529049
 4,-0.7720828283\H,-3.6180466387,0.0898864158,-1.6699029426\O,-4.754505
 1592,-1.4766245059,-0.9166645832\H,-4.4398841586,-2.1386107435,-1.5416
 15186\C,-2.3989172266,-1.2413876779,-0.5173415588\H,-2.524137587,-1.87
 44148053,0.3742834514\O,-2.1337548377,-2.0423288797,-1.6496930789\H,-1
 .2836621096,-2.4687659241,-1.5055587532\C,-1.2606034111,-0.270686016,-
 0.2374334229\H,-1.0065098955,0.2681350882,-1.156330082\O,-0.1829123392
 ,-1.1434699479,0.11413654\C,-0.7918219427,1.962845987,1.0046174255\H,0
 .2228551815,1.7185096523,1.3112278805\H,-0.7405704494,2.4615135411,0.0
 271920162\O,-1.3214828672,2.8113517292,1.9900646607\H,-2.2481548486,2.
 9417750709,1.7620752622\C,1.0643506993,-0.5857900996,0.3859845994\H,1.
 0590060048,-0.0879617834,1.3678732952\C,2.6515105622,0.9745109765,-0.3
 907917959\H,2.6279060768,1.4784988492,0.5863974373\O,1.3943615593,0.33
 30037212,-0.622757184\C,2.0747839544,-1.7226466832,0.4136732464\H,2.04
 42153733,-2.2264073238,-0.5617135073\O,1.8230874406,-2.6209281829,1.47
 08098204\H,0.9397133505,-2.9813981972,1.3494556249\C,3.4561447263,-1.1
 400328721,0.6414519528\H,3.4756039551,-0.6718647364,1.6368850213\O,4.4
 658200265,-2.1205789303,0.5416779797\H,4.2573723731,-2.814235227,1.175
 6120574\C,3.7587563522,-0.072621913,-0.3948197735\H,3.7895430078,-0.55
 26675587,-1.3842942505\O,4.9727664288,0.5790243661,-0.1100560138\H,5.6
 307767602,-0.1091662272,0.0348479331\C,2.8083895712,2.0120953084,-1.48
 33700332\H,3.72551609,2.5740614447,-1.3113448076\H,2.8894106762,1.4959
 792971,-2.4495669239\O,1.7329796114,2.9215482019,-1.470914612\H,0.9323
 187988,2.3982457639,-1.5705314938\\Version=EM64L-G16RevA.03\State=1-A\
 HF=-1297.8213137\RMSD=6.392e-09\RMSF=1.455e-05\Dipole=0.549791,-1.6442
 85,-0.4825826\Quadrupole=-5.282074,0.8619138,4.4201602,-5.7770404,5.19
 51043,-3.9240074\PG=C01 [X(C12H22O11)]\\@


 ALL SCIENCE IS EITHER PHYSICS, OR STAMP COLLECTING.
   --ERNEST RUTHERFORD, 1871-1937.
 Job cpu time:       0 days  4 hours 22 minutes 16.8 seconds.
 Elapsed time:       0 days  0 hours 32 minutes 57.2 seconds.
 File lengths (MBytes):  RWF=    189 Int=      0 D2E=      0 Chk=     24 Scr=      1
 Normal termination of Gaussian 16 at Thu Mar 16 18:37:44 2023.
