 Entering Gaussian System, Link 0=/dragofs/sw/campus/0.2/software/gaussian/16.gaussian/gaussian/g16_legacy/g16
 Input=dimer14b_000_002_opt.com
 Output=dimer14b_000_002_opt.log
 Initial command:
 /dragofs/sw/campus/0.2/software/gaussian/16.gaussian/gaussian/g16_legacy/l1.exe "/tmp/jramos/82038/Gau-2613694.inp" -scrdir="/tmp/jramos/82038/"
 Entering Link 1 = /dragofs/sw/campus/0.2/software/gaussian/16.gaussian/gaussian/g16_legacy/l1.exe PID=   2613695.
  
 Copyright (c) 1988,1990,1992,1993,1995,1998,2003,2009,2016,
            Gaussian, Inc.  All Rights Reserved.
  
 This is part of the Gaussian(R) 16 program.  It is based on
 the Gaussian(R) 09 system (copyright 2009, Gaussian, Inc.),
 the Gaussian(R) 03 system (copyright 2003, Gaussian, Inc.),
 the Gaussian(R) 98 system (copyright 1998, Gaussian, Inc.),
 the Gaussian(R) 94 system (copyright 1995, Gaussian, Inc.),
 the Gaussian 92(TM) system (copyright 1992, Gaussian, Inc.),
 the Gaussian 90(TM) system (copyright 1990, Gaussian, Inc.),
 the Gaussian 88(TM) system (copyright 1988, Gaussian, Inc.),
 the Gaussian 86(TM) system (copyright 1986, Carnegie Mellon
 University), and the Gaussian 82(TM) system (copyright 1983,
 Carnegie Mellon University). Gaussian is a federally registered
 trademark of Gaussian, Inc.
  
 This software contains proprietary and confidential information,
 including trade secrets, belonging to Gaussian, Inc.
  
 This software is provided under written license and may be
 used, copied, transmitted, or stored only in accord with that
 written license.
  
 The following legend is applicable only to US Government
 contracts under FAR:
  
                    RESTRICTED RIGHTS LEGEND
  
 Use, reproduction and disclosure by the US Government is
 subject to restrictions as set forth in subparagraphs (a)
 and (c) of the Commercial Computer Software - Restricted
 Rights clause in FAR 52.227-19.
  
 Gaussian, Inc.
 340 Quinnipiac St., Bldg. 40, Wallingford CT 06492
  
  
 ---------------------------------------------------------------
 Warning -- This program may not be used in any manner that
 competes with the business of Gaussian, Inc. or will provide
 assistance to any competitor of Gaussian, Inc.  The licensee
 of this program is prohibited from giving any competitor of
 Gaussian, Inc. access to this program.  By using this program,
 the user acknowledges that Gaussian, Inc. is engaged in the
 business of creating and licensing software in the field of
 computational chemistry and represents and warrants to the
 licensee that it is not a competitor of Gaussian, Inc. and that
 it will not use this program in any manner prohibited above.
 ---------------------------------------------------------------
  

 Cite this work as:
 Gaussian 16, Revision A.03,
 M. J. Frisch, G. W. Trucks, H. B. Schlegel, G. E. Scuseria, 
 M. A. Robb, J. R. Cheeseman, G. Scalmani, V. Barone, 
 G. A. Petersson, H. Nakatsuji, X. Li, M. Caricato, A. V. Marenich, 
 J. Bloino, B. G. Janesko, R. Gomperts, B. Mennucci, H. P. Hratchian, 
 J. V. Ortiz, A. F. Izmaylov, J. L. Sonnenberg, D. Williams-Young, 
 F. Ding, F. Lipparini, F. Egidi, J. Goings, B. Peng, A. Petrone, 
 T. Henderson, D. Ranasinghe, V. G. Zakrzewski, J. Gao, N. Rega, 
 G. Zheng, W. Liang, M. Hada, M. Ehara, K. Toyota, R. Fukuda, 
 J. Hasegawa, M. Ishida, T. Nakajima, Y. Honda, O. Kitao, H. Nakai, 
 T. Vreven, K. Throssell, J. A. Montgomery, Jr., J. E. Peralta, 
 F. Ogliaro, M. J. Bearpark, J. J. Heyd, E. N. Brothers, K. N. Kudin, 
 V. N. Staroverov, T. A. Keith, R. Kobayashi, J. Normand, 
 K. Raghavachari, A. P. Rendell, J. C. Burant, S. S. Iyengar, 
 J. Tomasi, M. Cossi, J. M. Millam, M. Klene, C. Adamo, R. Cammi, 
 J. W. Ochterski, R. L. Martin, K. Morokuma, O. Farkas, 
 J. B. Foresman, and D. J. Fox, Gaussian, Inc., Wallingford CT, 2016.
 
 ******************************************
 Gaussian 16:  EM64L-G16RevA.03 25-Dec-2016
                16-Mar-2023 
 ******************************************
 %chk=dimer14b_000_002_opt.chk
 %mem=2000MB
 %nproc=8
 Will use up to    8 processors via shared memory.
 ------------------------
 #p opt M062X/6-311g(d,p)
 ------------------------
 1/18=20,19=15,26=3,38=1/1,3;
 2/9=110,12=2,17=6,18=5,40=1/2;
 3/5=4,6=6,7=101,11=2,25=1,30=1,71=1,74=-55/1,2,3;
 4//1;
 5/5=2,38=5/2;
 6/7=2,8=2,9=2,10=2,28=1/1;
 7//1,2,3,16;
 1/18=20,19=15,26=3/3(2);
 2/9=110/2;
 99//99;
 2/9=110/2;
 3/5=4,6=6,7=101,11=2,25=1,30=1,71=1,74=-55/1,2,3;
 4/5=5,16=3,69=1/1;
 5/5=2,38=5/2;
 7//1,2,3,16;
 1/18=20,19=15,26=3/3(-5);
 2/9=110/2;
 6/7=2,8=2,9=2,10=2,19=2,28=1/1;
 99/9=1/99;
 Leave Link    1 at Thu Mar 16 17:59:15 2023, MaxMem=   262144000 cpu:               0.2 elap:               0.0
 (Enter /dragofs/sw/campus/0.2/software/gaussian/16.gaussian/gaussian/g16_legacy/l101.exe)
 ---------------------------------------------------------
 Optimization 03-DIHEDRAL_PHI_PSI_14b/dimer14b_000_002.log
 ---------------------------------------------------------
 Symbolic Z-matrix:
 Charge =  0 Multiplicity = 1
 C                    -4.1041    0.08759   0.31698 
 H                    -4.29269  -0.75048   0.99876 
 O                    -5.26695   0.8186    0.25436 
 H                    -5.19332   1.4494   -0.46866 
 C                    -1.86077   0.23488   1.15344 
 H                    -2.08341  -0.64638   1.77318 
 O                    -3.07233   0.91533   0.84345 
 C                    -3.62584  -0.4228   -1.03353 
 H                    -3.48279   0.45031  -1.69144 
 O                    -4.57801  -1.30841  -1.55869 
 H                    -4.17045  -1.72657  -2.32475 
 C                    -2.28376  -1.11214  -0.86844 
 H                    -2.42774  -2.00127  -0.23576 
 O                    -1.87048  -1.49591  -2.16203 
 H                    -0.97939  -1.85092  -2.08257 
 C                    -1.25583  -0.21817  -0.18749 
 H                    -1.03822   0.65564  -0.81071 
 O                    -0.09678  -1.04716  -0.10512 
 C                    -1.07173   1.24461   1.98626 
 H                    -0.22592   0.76203   2.47416 
 H                    -0.69484   2.03926   1.32439 
 O                    -1.87417   1.7554    3.01713 
 H                    -2.71528   1.99364   2.61189 
 C                     1.10635  -0.43881   0.23963 
 H                     1.0238    0.11894   1.1793 
 C                     2.69974   1.12831  -0.50998 
 H                     2.59332   1.67289   0.43942 
 O                     1.48367   0.43458  -0.79859 
 C                     2.14395  -1.54023   0.39249 
 H                     2.19134  -2.09484  -0.55419 
 O                     1.84629  -2.39024   1.47759 
 H                     0.99574  -2.80362   1.3021 
 C                     3.49237  -0.90692   0.67574 
 H                     3.43655  -0.39002   1.64563 
 O                     4.53086  -1.86206   0.69035 
 H                     4.29898  -2.5293    1.34417 
 C                     3.83468   0.11873  -0.39065 
 H                     3.94582  -0.40637  -1.35098 
 O                     5.00917   0.81853  -0.05701 
 H                     5.67291   0.15746   0.16652 
 C                     2.90032   2.12707  -1.6305 
 H                     3.80376   2.70394  -1.4362 
 H                     3.0299    1.57735  -2.57262 
 O                     1.81784   3.02585  -1.69967 
 H                     1.02689   2.49017  -1.80949 
 
 ITRead=  0  0  0  0  0  0  0  0  0  0  0  0  0  0  0  0  0  0  0  0
 ITRead=  0  0  0  0  0  0  0  0  0  0  0  0  0  0  0  0  0  0  0  0
 ITRead=  0  0  0  0  0
 MicOpt= -1 -1 -1 -1 -1 -1 -1 -1 -1 -1 -1 -1 -1 -1 -1 -1 -1 -1 -1 -1
 MicOpt= -1 -1 -1 -1 -1 -1 -1 -1 -1 -1 -1 -1 -1 -1 -1 -1 -1 -1 -1 -1
 MicOpt= -1 -1 -1 -1 -1
 NAtoms=     45 NQM=       45 NQMF=       0 NMMI=      0 NMMIF=      0
                NMic=       0 NMicF=      0.
                    Isotopes and Nuclear Properties:
 (Nuclear quadrupole moments (NQMom) in fm**2, nuclear magnetic moments (NMagM)
  in nuclear magnetons)

  Atom         1           2           3           4           5           6           7           8           9          10
 IAtWgt=          12           1          16           1          12           1          16          12           1          16
 AtmWgt=  12.0000000   1.0078250  15.9949146   1.0078250  12.0000000   1.0078250  15.9949146  12.0000000   1.0078250  15.9949146
 NucSpn=           0           1           0           1           0           1           0           0           1           0
 AtZEff=  -0.0000000  -0.0000000  -0.0000000  -0.0000000  -0.0000000  -0.0000000  -0.0000000  -0.0000000  -0.0000000  -0.0000000
 NQMom=    0.0000000   0.0000000   0.0000000   0.0000000   0.0000000   0.0000000   0.0000000   0.0000000   0.0000000   0.0000000
 NMagM=    0.0000000   2.7928460   0.0000000   2.7928460   0.0000000   2.7928460   0.0000000   0.0000000   2.7928460   0.0000000
 AtZNuc=   6.0000000   1.0000000   8.0000000   1.0000000   6.0000000   1.0000000   8.0000000   6.0000000   1.0000000   8.0000000

  Atom        11          12          13          14          15          16          17          18          19          20
 IAtWgt=           1          12           1          16           1          12           1          16          12           1
 AtmWgt=   1.0078250  12.0000000   1.0078250  15.9949146   1.0078250  12.0000000   1.0078250  15.9949146  12.0000000   1.0078250
 NucSpn=           1           0           1           0           1           0           1           0           0           1
 AtZEff=  -0.0000000  -0.0000000  -0.0000000  -0.0000000  -0.0000000  -0.0000000  -0.0000000  -0.0000000  -0.0000000  -0.0000000
 NQMom=    0.0000000   0.0000000   0.0000000   0.0000000   0.0000000   0.0000000   0.0000000   0.0000000   0.0000000   0.0000000
 NMagM=    2.7928460   0.0000000   2.7928460   0.0000000   2.7928460   0.0000000   2.7928460   0.0000000   0.0000000   2.7928460
 AtZNuc=   1.0000000   6.0000000   1.0000000   8.0000000   1.0000000   6.0000000   1.0000000   8.0000000   6.0000000   1.0000000

  Atom        21          22          23          24          25          26          27          28          29          30
 IAtWgt=           1          16           1          12           1          12           1          16          12           1
 AtmWgt=   1.0078250  15.9949146   1.0078250  12.0000000   1.0078250  12.0000000   1.0078250  15.9949146  12.0000000   1.0078250
 NucSpn=           1           0           1           0           1           0           1           0           0           1
 AtZEff=  -0.0000000  -0.0000000  -0.0000000  -0.0000000  -0.0000000  -0.0000000  -0.0000000  -0.0000000  -0.0000000  -0.0000000
 NQMom=    0.0000000   0.0000000   0.0000000   0.0000000   0.0000000   0.0000000   0.0000000   0.0000000   0.0000000   0.0000000
 NMagM=    2.7928460   0.0000000   2.7928460   0.0000000   2.7928460   0.0000000   2.7928460   0.0000000   0.0000000   2.7928460
 AtZNuc=   1.0000000   8.0000000   1.0000000   6.0000000   1.0000000   6.0000000   1.0000000   8.0000000   6.0000000   1.0000000

  Atom        31          32          33          34          35          36          37          38          39          40
 IAtWgt=          16           1          12           1          16           1          12           1          16           1
 AtmWgt=  15.9949146   1.0078250  12.0000000   1.0078250  15.9949146   1.0078250  12.0000000   1.0078250  15.9949146   1.0078250
 NucSpn=           0           1           0           1           0           1           0           1           0           1
 AtZEff=  -0.0000000  -0.0000000  -0.0000000  -0.0000000  -0.0000000  -0.0000000  -0.0000000  -0.0000000  -0.0000000  -0.0000000
 NQMom=    0.0000000   0.0000000   0.0000000   0.0000000   0.0000000   0.0000000   0.0000000   0.0000000   0.0000000   0.0000000
 NMagM=    0.0000000   2.7928460   0.0000000   2.7928460   0.0000000   2.7928460   0.0000000   2.7928460   0.0000000   2.7928460
 AtZNuc=   8.0000000   1.0000000   6.0000000   1.0000000   8.0000000   1.0000000   6.0000000   1.0000000   8.0000000   1.0000000

  Atom        41          42          43          44          45
 IAtWgt=          12           1           1          16           1
 AtmWgt=  12.0000000   1.0078250   1.0078250  15.9949146   1.0078250
 NucSpn=           0           1           1           0           1
 AtZEff=  -0.0000000  -0.0000000  -0.0000000  -0.0000000  -0.0000000
 NQMom=    0.0000000   0.0000000   0.0000000   0.0000000   0.0000000
 NMagM=    0.0000000   2.7928460   2.7928460   0.0000000   2.7928460
 AtZNuc=   6.0000000   1.0000000   1.0000000   8.0000000   1.0000000
 Leave Link  101 at Thu Mar 16 17:59:15 2023, MaxMem=   262144000 cpu:               1.0 elap:               0.1
 (Enter /dragofs/sw/campus/0.2/software/gaussian/16.gaussian/gaussian/g16_legacy/l103.exe)

 GradGradGradGradGradGradGradGradGradGradGradGradGradGradGradGradGradGrad
 Berny optimization.
 Initialization pass.
                           ----------------------------
                           !    Initial Parameters    !
                           ! (Angstroms and Degrees)  !
 --------------------------                            --------------------------
 ! Name  Definition              Value          Derivative Info.                !
 --------------------------------------------------------------------------------
 ! R1    R(1,2)                  1.0967         estimate D2E/DX2                !
 ! R2    R(1,3)                  1.375          estimate D2E/DX2                !
 ! R3    R(1,7)                  1.4237         estimate D2E/DX2                !
 ! R4    R(1,8)                  1.5209         estimate D2E/DX2                !
 ! R5    R(3,4)                  0.9623         estimate D2E/DX2                !
 ! R6    R(5,6)                  1.1001         estimate D2E/DX2                !
 ! R7    R(5,7)                  1.4237         estimate D2E/DX2                !
 ! R8    R(5,16)                 1.5393         estimate D2E/DX2                !
 ! R9    R(5,19)                 1.5283         estimate D2E/DX2                !
 ! R10   R(8,9)                  1.1026         estimate D2E/DX2                !
 ! R11   R(8,10)                 1.4024         estimate D2E/DX2                !
 ! R12   R(8,12)                 1.5178         estimate D2E/DX2                !
 ! R13   R(10,11)                0.9632         estimate D2E/DX2                !
 ! R14   R(12,13)                1.1007         estimate D2E/DX2                !
 ! R15   R(12,14)                1.4112         estimate D2E/DX2                !
 ! R16   R(12,16)                1.523          estimate D2E/DX2                !
 ! R17   R(14,15)                0.9625         estimate D2E/DX2                !
 ! R18   R(16,17)                1.0951         estimate D2E/DX2                !
 ! R19   R(16,18)                1.4274         estimate D2E/DX2                !
 ! R20   R(18,24)                1.3916         estimate D2E/DX2                !
 ! R21   R(19,20)                1.0892         estimate D2E/DX2                !
 ! R22   R(19,21)                1.1007         estimate D2E/DX2                !
 ! R23   R(19,22)                1.4027         estimate D2E/DX2                !
 ! R24   R(22,23)                0.9636         estimate D2E/DX2                !
 ! R25   R(24,25)                1.0958         estimate D2E/DX2                !
 ! R26   R(24,28)                1.4082         estimate D2E/DX2                !
 ! R27   R(24,29)                1.5209         estimate D2E/DX2                !
 ! R28   R(26,27)                1.0997         estimate D2E/DX2                !
 ! R29   R(26,28)                1.4295         estimate D2E/DX2                !
 ! R30   R(26,37)                1.5237         estimate D2E/DX2                !
 ! R31   R(26,41)                1.5144         estimate D2E/DX2                !
 ! R32   R(29,30)                1.0982         estimate D2E/DX2                !
 ! R33   R(29,31)                1.4102         estimate D2E/DX2                !
 ! R34   R(29,33)                1.5164         estimate D2E/DX2                !
 ! R35   R(31,32)                0.9618         estimate D2E/DX2                !
 ! R36   R(33,34)                1.1004         estimate D2E/DX2                !
 ! R37   R(33,35)                1.411          estimate D2E/DX2                !
 ! R38   R(33,37)                1.5186         estimate D2E/DX2                !
 ! R39   R(35,36)                0.9625         estimate D2E/DX2                !
 ! R40   R(37,38)                1.1001         estimate D2E/DX2                !
 ! R41   R(37,39)                1.4073         estimate D2E/DX2                !
 ! R42   R(39,40)                0.9631         estimate D2E/DX2                !
 ! R43   R(41,42)                1.0894         estimate D2E/DX2                !
 ! R44   R(41,43)                1.0984         estimate D2E/DX2                !
 ! R45   R(41,44)                1.4087         estimate D2E/DX2                !
 ! R46   R(44,45)                0.9616         estimate D2E/DX2                !
 ! A1    A(2,1,3)              106.8073         estimate D2E/DX2                !
 ! A2    A(2,1,7)              109.8178         estimate D2E/DX2                !
 ! A3    A(2,1,8)              110.4664         estimate D2E/DX2                !
 ! A4    A(3,1,7)              108.702          estimate D2E/DX2                !
 ! A5    A(3,1,8)              113.8239         estimate D2E/DX2                !
 ! A6    A(7,1,8)              107.1928         estimate D2E/DX2                !
 ! A7    A(1,3,4)              108.5421         estimate D2E/DX2                !
 ! A8    A(6,5,7)              109.469          estimate D2E/DX2                !
 ! A9    A(6,5,16)             109.5432         estimate D2E/DX2                !
 ! A10   A(6,5,19)             109.0718         estimate D2E/DX2                !
 ! A11   A(7,5,16)             106.5847         estimate D2E/DX2                !
 ! A12   A(7,5,19)             104.0179         estimate D2E/DX2                !
 ! A13   A(16,5,19)            117.7927         estimate D2E/DX2                !
 ! A14   A(1,7,5)              114.7941         estimate D2E/DX2                !
 ! A15   A(1,8,9)              107.7532         estimate D2E/DX2                !
 ! A16   A(1,8,10)             109.326          estimate D2E/DX2                !
 ! A17   A(1,8,12)             109.5051         estimate D2E/DX2                !
 ! A18   A(9,8,10)             111.3898         estimate D2E/DX2                !
 ! A19   A(9,8,12)             108.0495         estimate D2E/DX2                !
 ! A20   A(10,8,12)            110.7498         estimate D2E/DX2                !
 ! A21   A(8,10,11)            106.5403         estimate D2E/DX2                !
 ! A22   A(8,12,13)            108.2837         estimate D2E/DX2                !
 ! A23   A(8,12,14)            106.4253         estimate D2E/DX2                !
 ! A24   A(8,12,16)            112.2624         estimate D2E/DX2                !
 ! A25   A(13,12,14)           110.214          estimate D2E/DX2                !
 ! A26   A(13,12,16)           107.785          estimate D2E/DX2                !
 ! A27   A(14,12,16)           111.8281         estimate D2E/DX2                !
 ! A28   A(12,14,15)           107.2029         estimate D2E/DX2                !
 ! A29   A(5,16,12)            107.2785         estimate D2E/DX2                !
 ! A30   A(5,16,17)            109.8162         estimate D2E/DX2                !
 ! A31   A(5,16,18)            116.0905         estimate D2E/DX2                !
 ! A32   A(12,16,17)           110.3669         estimate D2E/DX2                !
 ! A33   A(12,16,18)           103.4714         estimate D2E/DX2                !
 ! A34   A(17,16,18)           109.5663         estimate D2E/DX2                !
 ! A35   A(16,18,24)           117.546          estimate D2E/DX2                !
 ! A36   A(5,19,20)            110.6276         estimate D2E/DX2                !
 ! A37   A(5,19,21)            109.0313         estimate D2E/DX2                !
 ! A38   A(5,19,22)            110.2258         estimate D2E/DX2                !
 ! A39   A(20,19,21)           108.8637         estimate D2E/DX2                !
 ! A40   A(20,19,22)           106.0441         estimate D2E/DX2                !
 ! A41   A(21,19,22)           112.0188         estimate D2E/DX2                !
 ! A42   A(19,22,23)           106.2796         estimate D2E/DX2                !
 ! A43   A(18,24,25)           111.7038         estimate D2E/DX2                !
 ! A44   A(18,24,28)           108.6719         estimate D2E/DX2                !
 ! A45   A(18,24,29)           107.347          estimate D2E/DX2                !
 ! A46   A(25,24,28)           109.6761         estimate D2E/DX2                !
 ! A47   A(25,24,29)           109.4994         estimate D2E/DX2                !
 ! A48   A(28,24,29)           109.9044         estimate D2E/DX2                !
 ! A49   A(27,26,28)           109.4099         estimate D2E/DX2                !
 ! A50   A(27,26,37)           109.4273         estimate D2E/DX2                !
 ! A51   A(27,26,41)           108.9669         estimate D2E/DX2                !
 ! A52   A(28,26,37)           109.1428         estimate D2E/DX2                !
 ! A53   A(28,26,41)           106.4602         estimate D2E/DX2                !
 ! A54   A(37,26,41)           113.3462         estimate D2E/DX2                !
 ! A55   A(24,28,26)           112.3383         estimate D2E/DX2                !
 ! A56   A(24,29,30)           107.9708         estimate D2E/DX2                !
 ! A57   A(24,29,31)           111.7066         estimate D2E/DX2                !
 ! A58   A(24,29,33)           108.8428         estimate D2E/DX2                !
 ! A59   A(30,29,31)           111.5933         estimate D2E/DX2                !
 ! A60   A(30,29,33)           109.485          estimate D2E/DX2                !
 ! A61   A(31,29,33)           107.1998         estimate D2E/DX2                !
 ! A62   A(29,31,32)           107.7779         estimate D2E/DX2                !
 ! A63   A(29,33,34)           108.4028         estimate D2E/DX2                !
 ! A64   A(29,33,35)           111.942          estimate D2E/DX2                !
 ! A65   A(29,33,37)           110.5684         estimate D2E/DX2                !
 ! A66   A(34,33,35)           110.253          estimate D2E/DX2                !
 ! A67   A(34,33,37)           108.2455         estimate D2E/DX2                !
 ! A68   A(35,33,37)           107.3702         estimate D2E/DX2                !
 ! A69   A(33,35,36)           107.3964         estimate D2E/DX2                !
 ! A70   A(26,37,33)           109.5476         estimate D2E/DX2                !
 ! A71   A(26,37,38)           108.8528         estimate D2E/DX2                !
 ! A72   A(26,37,39)           108.1031         estimate D2E/DX2                !
 ! A73   A(33,37,38)           108.2628         estimate D2E/DX2                !
 ! A74   A(33,37,39)           110.9455         estimate D2E/DX2                !
 ! A75   A(38,37,39)           111.0996         estimate D2E/DX2                !
 ! A76   A(37,39,40)           106.7899         estimate D2E/DX2                !
 ! A77   A(26,41,42)           109.0932         estimate D2E/DX2                !
 ! A78   A(26,41,43)           108.6743         estimate D2E/DX2                !
 ! A79   A(26,41,44)           110.8146         estimate D2E/DX2                !
 ! A80   A(42,41,43)           108.6728         estimate D2E/DX2                !
 ! A81   A(42,41,44)           107.9496         estimate D2E/DX2                !
 ! A82   A(43,41,44)           111.5828         estimate D2E/DX2                !
 ! A83   A(41,44,45)           106.3951         estimate D2E/DX2                !
 ! D1    D(2,1,3,4)           -168.4412         estimate D2E/DX2                !
 ! D2    D(7,1,3,4)             73.1243         estimate D2E/DX2                !
 ! D3    D(8,1,3,4)            -46.2561         estimate D2E/DX2                !
 ! D4    D(2,1,7,5)             54.4613         estimate D2E/DX2                !
 ! D5    D(3,1,7,5)            170.9796         estimate D2E/DX2                !
 ! D6    D(8,1,7,5)            -65.5756         estimate D2E/DX2                !
 ! D7    D(2,1,8,9)            178.1482         estimate D2E/DX2                !
 ! D8    D(2,1,8,10)            56.9434         estimate D2E/DX2                !
 ! D9    D(2,1,8,12)           -64.5585         estimate D2E/DX2                !
 ! D10   D(3,1,8,9)             58.0041         estimate D2E/DX2                !
 ! D11   D(3,1,8,10)           -63.2007         estimate D2E/DX2                !
 ! D12   D(3,1,8,12)           175.2974         estimate D2E/DX2                !
 ! D13   D(7,1,8,9)            -62.2297         estimate D2E/DX2                !
 ! D14   D(7,1,8,10)           176.5655         estimate D2E/DX2                !
 ! D15   D(7,1,8,12)            55.0636         estimate D2E/DX2                !
 ! D16   D(6,5,7,1)            -50.5495         estimate D2E/DX2                !
 ! D17   D(16,5,7,1)            67.8417         estimate D2E/DX2                !
 ! D18   D(19,5,7,1)          -167.0025         estimate D2E/DX2                !
 ! D19   D(6,5,16,12)           59.6798         estimate D2E/DX2                !
 ! D20   D(6,5,16,17)          179.6471         estimate D2E/DX2                !
 ! D21   D(6,5,16,18)          -55.4057         estimate D2E/DX2                !
 ! D22   D(7,5,16,12)          -58.6627         estimate D2E/DX2                !
 ! D23   D(7,5,16,17)           61.3046         estimate D2E/DX2                !
 ! D24   D(7,5,16,18)         -173.7482         estimate D2E/DX2                !
 ! D25   D(19,5,16,12)        -174.9373         estimate D2E/DX2                !
 ! D26   D(19,5,16,17)         -54.97           estimate D2E/DX2                !
 ! D27   D(19,5,16,18)          69.9772         estimate D2E/DX2                !
 ! D28   D(6,5,19,20)           50.2812         estimate D2E/DX2                !
 ! D29   D(6,5,19,21)          169.9698         estimate D2E/DX2                !
 ! D30   D(6,5,19,22)          -66.6812         estimate D2E/DX2                !
 ! D31   D(7,5,19,20)          167.0116         estimate D2E/DX2                !
 ! D32   D(7,5,19,21)          -73.2998         estimate D2E/DX2                !
 ! D33   D(7,5,19,22)           50.0492         estimate D2E/DX2                !
 ! D34   D(16,5,19,20)         -75.3333         estimate D2E/DX2                !
 ! D35   D(16,5,19,21)          44.3553         estimate D2E/DX2                !
 ! D36   D(16,5,19,22)         167.7043         estimate D2E/DX2                !
 ! D37   D(1,8,10,11)         -169.9531         estimate D2E/DX2                !
 ! D38   D(9,8,10,11)           71.074          estimate D2E/DX2                !
 ! D39   D(12,8,10,11)         -49.2066         estimate D2E/DX2                !
 ! D40   D(1,8,12,13)           64.508          estimate D2E/DX2                !
 ! D41   D(1,8,12,14)         -177.0165         estimate D2E/DX2                !
 ! D42   D(1,8,12,16)          -54.3638         estimate D2E/DX2                !
 ! D43   D(9,8,12,13)         -178.3849         estimate D2E/DX2                !
 ! D44   D(9,8,12,14)          -59.9094         estimate D2E/DX2                !
 ! D45   D(9,8,12,16)           62.7433         estimate D2E/DX2                !
 ! D46   D(10,8,12,13)         -56.1321         estimate D2E/DX2                !
 ! D47   D(10,8,12,14)          62.3434         estimate D2E/DX2                !
 ! D48   D(10,8,12,16)        -175.0039         estimate D2E/DX2                !
 ! D49   D(8,12,14,15)         174.1594         estimate D2E/DX2                !
 ! D50   D(13,12,14,15)        -68.6416         estimate D2E/DX2                !
 ! D51   D(16,12,14,15)         51.2337         estimate D2E/DX2                !
 ! D52   D(8,12,16,5)           55.6232         estimate D2E/DX2                !
 ! D53   D(8,12,16,17)         -63.9922         estimate D2E/DX2                !
 ! D54   D(8,12,16,18)         178.8612         estimate D2E/DX2                !
 ! D55   D(13,12,16,5)         -63.5413         estimate D2E/DX2                !
 ! D56   D(13,12,16,17)        176.8432         estimate D2E/DX2                !
 ! D57   D(13,12,16,18)         59.6967         estimate D2E/DX2                !
 ! D58   D(14,12,16,5)         175.1681         estimate D2E/DX2                !
 ! D59   D(14,12,16,17)         55.5527         estimate D2E/DX2                !
 ! D60   D(14,12,16,18)        -61.5939         estimate D2E/DX2                !
 ! D61   D(5,16,18,24)         -74.8517         estimate D2E/DX2                !
 ! D62   D(12,16,18,24)        167.9303         estimate D2E/DX2                !
 ! D63   D(17,16,18,24)         50.2232         estimate D2E/DX2                !
 ! D64   D(16,18,24,25)         54.5067         estimate D2E/DX2                !
 ! D65   D(16,18,24,28)        -66.6268         estimate D2E/DX2                !
 ! D66   D(16,18,24,29)        174.554          estimate D2E/DX2                !
 ! D67   D(5,19,22,23)         -47.0759         estimate D2E/DX2                !
 ! D68   D(20,19,22,23)       -166.8523         estimate D2E/DX2                !
 ! D69   D(21,19,22,23)         74.5152         estimate D2E/DX2                !
 ! D70   D(18,24,28,26)        178.6088         estimate D2E/DX2                !
 ! D71   D(25,24,28,26)         56.2378         estimate D2E/DX2                !
 ! D72   D(29,24,28,26)        -64.1925         estimate D2E/DX2                !
 ! D73   D(18,24,29,30)         57.4122         estimate D2E/DX2                !
 ! D74   D(18,24,29,31)        -65.6493         estimate D2E/DX2                !
 ! D75   D(18,24,29,33)        176.1769         estimate D2E/DX2                !
 ! D76   D(25,24,29,30)        178.8527         estimate D2E/DX2                !
 ! D77   D(25,24,29,31)         55.7912         estimate D2E/DX2                !
 ! D78   D(25,24,29,33)        -62.3825         estimate D2E/DX2                !
 ! D79   D(28,24,29,30)        -60.6101         estimate D2E/DX2                !
 ! D80   D(28,24,29,31)        176.3284         estimate D2E/DX2                !
 ! D81   D(28,24,29,33)         58.1546         estimate D2E/DX2                !
 ! D82   D(27,26,28,24)        -56.4918         estimate D2E/DX2                !
 ! D83   D(37,26,28,24)         63.2176         estimate D2E/DX2                !
 ! D84   D(41,26,28,24)       -174.101          estimate D2E/DX2                !
 ! D85   D(27,26,37,33)         62.8975         estimate D2E/DX2                !
 ! D86   D(27,26,37,38)       -178.8975         estimate D2E/DX2                !
 ! D87   D(27,26,37,39)        -58.1114         estimate D2E/DX2                !
 ! D88   D(28,26,37,33)        -56.8012         estimate D2E/DX2                !
 ! D89   D(28,26,37,38)         61.4038         estimate D2E/DX2                !
 ! D90   D(28,26,37,39)       -177.8101         estimate D2E/DX2                !
 ! D91   D(41,26,37,33)       -175.2586         estimate D2E/DX2                !
 ! D92   D(41,26,37,38)        -57.0536         estimate D2E/DX2                !
 ! D93   D(41,26,37,39)         63.7325         estimate D2E/DX2                !
 ! D94   D(27,26,41,42)         60.3359         estimate D2E/DX2                !
 ! D95   D(27,26,41,43)        178.6707         estimate D2E/DX2                !
 ! D96   D(27,26,41,44)        -58.381          estimate D2E/DX2                !
 ! D97   D(28,26,41,42)        178.2381         estimate D2E/DX2                !
 ! D98   D(28,26,41,43)        -63.4272         estimate D2E/DX2                !
 ! D99   D(28,26,41,44)         59.5212         estimate D2E/DX2                !
 ! D100  D(37,26,41,42)        -61.7648         estimate D2E/DX2                !
 ! D101  D(37,26,41,43)         56.5699         estimate D2E/DX2                !
 ! D102  D(37,26,41,44)        179.5183         estimate D2E/DX2                !
 ! D103  D(24,29,31,32)         61.414          estimate D2E/DX2                !
 ! D104  D(30,29,31,32)        -59.5636         estimate D2E/DX2                !
 ! D105  D(33,29,31,32)       -179.4344         estimate D2E/DX2                !
 ! D106  D(24,29,33,34)         64.3908         estimate D2E/DX2                !
 ! D107  D(24,29,33,35)       -173.7829         estimate D2E/DX2                !
 ! D108  D(24,29,33,37)        -54.117          estimate D2E/DX2                !
 ! D109  D(30,29,33,34)       -177.7983         estimate D2E/DX2                !
 ! D110  D(30,29,33,35)        -55.972          estimate D2E/DX2                !
 ! D111  D(30,29,33,37)         63.6939         estimate D2E/DX2                !
 ! D112  D(31,29,33,34)        -56.5886         estimate D2E/DX2                !
 ! D113  D(31,29,33,35)         65.2377         estimate D2E/DX2                !
 ! D114  D(31,29,33,37)       -175.0963         estimate D2E/DX2                !
 ! D115  D(29,33,35,36)        -56.4977         estimate D2E/DX2                !
 ! D116  D(34,33,35,36)         64.261          estimate D2E/DX2                !
 ! D117  D(37,33,35,36)       -178.0231         estimate D2E/DX2                !
 ! D118  D(29,33,37,26)         54.0641         estimate D2E/DX2                !
 ! D119  D(29,33,37,38)        -64.5075         estimate D2E/DX2                !
 ! D120  D(29,33,37,39)        173.3368         estimate D2E/DX2                !
 ! D121  D(34,33,37,26)        -64.5394         estimate D2E/DX2                !
 ! D122  D(34,33,37,38)        176.889          estimate D2E/DX2                !
 ! D123  D(34,33,37,39)         54.7333         estimate D2E/DX2                !
 ! D124  D(35,33,37,26)        176.4461         estimate D2E/DX2                !
 ! D125  D(35,33,37,38)         57.8745         estimate D2E/DX2                !
 ! D126  D(35,33,37,39)        -64.2811         estimate D2E/DX2                !
 ! D127  D(26,37,39,40)        170.1571         estimate D2E/DX2                !
 ! D128  D(33,37,39,40)         50.0211         estimate D2E/DX2                !
 ! D129  D(38,37,39,40)        -70.4669         estimate D2E/DX2                !
 ! D130  D(26,41,44,45)        -56.7136         estimate D2E/DX2                !
 ! D131  D(42,41,44,45)       -176.1199         estimate D2E/DX2                !
 ! D132  D(43,41,44,45)         64.5351         estimate D2E/DX2                !
 --------------------------------------------------------------------------------
 Trust Radius=3.00D-01 FncErr=1.00D-07 GrdErr=1.00D-06 EigMax=2.50D+02 EigMin=1.00D-04
 Number of steps in this run=    270 maximum allowed number of steps=    270.
 GradGradGradGradGradGradGradGradGradGradGradGradGradGradGradGradGradGrad

 Leave Link  103 at Thu Mar 16 17:59:15 2023, MaxMem=   262144000 cpu:               0.1 elap:               0.0
 (Enter /dragofs/sw/campus/0.2/software/gaussian/16.gaussian/gaussian/g16_legacy/l202.exe)
                          Input orientation:                          
 ---------------------------------------------------------------------
 Center     Atomic      Atomic             Coordinates (Angstroms)
 Number     Number       Type             X           Y           Z
 ---------------------------------------------------------------------
      1          6           0       -4.104099    0.087587    0.316980
      2          1           0       -4.292691   -0.750475    0.998763
      3          8           0       -5.266951    0.818599    0.254364
      4          1           0       -5.193317    1.449404   -0.468657
      5          6           0       -1.860771    0.234878    1.153442
      6          1           0       -2.083408   -0.646381    1.773184
      7          8           0       -3.072330    0.915330    0.843451
      8          6           0       -3.625845   -0.422800   -1.033526
      9          1           0       -3.482794    0.450309   -1.691437
     10          8           0       -4.578014   -1.308405   -1.558693
     11          1           0       -4.170453   -1.726569   -2.324745
     12          6           0       -2.283755   -1.112140   -0.868440
     13          1           0       -2.427742   -2.001271   -0.235760
     14          8           0       -1.870479   -1.495912   -2.162034
     15          1           0       -0.979394   -1.850915   -2.082570
     16          6           0       -1.255833   -0.218172   -0.187494
     17          1           0       -1.038225    0.655641   -0.810711
     18          8           0       -0.096782   -1.047156   -0.105116
     19          6           0       -1.071732    1.244614    1.986257
     20          1           0       -0.225917    0.762033    2.474160
     21          1           0       -0.694835    2.039261    1.324386
     22          8           0       -1.874170    1.755400    3.017128
     23          1           0       -2.715280    1.993636    2.611887
     24          6           0        1.106347   -0.438811    0.239625
     25          1           0        1.023802    0.118941    1.179296
     26          6           0        2.699742    1.128306   -0.509975
     27          1           0        2.593321    1.672889    0.439415
     28          8           0        1.483668    0.434577   -0.798594
     29          6           0        2.143952   -1.540230    0.392487
     30          1           0        2.191344   -2.094839   -0.554185
     31          8           0        1.846288   -2.390240    1.477590
     32          1           0        0.995739   -2.803620    1.302098
     33          6           0        3.492370   -0.906915    0.675740
     34          1           0        3.436552   -0.390018    1.645629
     35          8           0        4.530856   -1.862064    0.690350
     36          1           0        4.298975   -2.529301    1.344168
     37          6           0        3.834681    0.118726   -0.390646
     38          1           0        3.945816   -0.406374   -1.350983
     39          8           0        5.009173    0.818533   -0.057005
     40          1           0        5.672908    0.157464    0.166516
     41          6           0        2.900321    2.127069   -1.630504
     42          1           0        3.803763    2.703935   -1.436196
     43          1           0        3.029898    1.577345   -2.572623
     44          8           0        1.817838    3.025847   -1.699668
     45          1           0        1.026893    2.490173   -1.809494
 ---------------------------------------------------------------------
                    Distance matrix (angstroms):
                    1          2          3          4          5
     1  C    0.000000
     2  H    1.096696   0.000000
     3  O    1.374963   1.991308   0.000000
     4  H    1.912633   2.793549   0.962339   0.000000
     5  C    2.398725   2.628513   3.570873   3.900275   0.000000
     6  H    2.596619   2.343394   3.819414   4.369176   1.100120
     7  O    1.423684   2.070823   2.274366   2.550578   1.423722
     8  C    1.520884   2.163851   2.427542   2.506231   2.886322
     9  H    2.133384   3.055322   2.665520   2.327933   3.281875
    10  O    2.385695   2.633112   2.878534   3.028578   4.137730
    11  H    3.205351   3.466036   3.785762   3.818130   4.612991
    12  C    2.481576   2.766419   3.726647   3.897035   2.466045
    13  H    2.734780   2.562532   4.031500   4.428296   2.692898
    14  O    3.693513   4.051349   4.767805   4.752227   3.740068
    15  H    4.390833   4.656556   5.565133   5.590525   3.949574
    16  C    2.908711   3.303492   4.166437   4.285282   1.539257
    17  H    3.315713   3.980315   4.363836   4.244037   2.170604
    18  O    4.186215   4.348818   5.508259   5.686795   2.517784
    19  C    3.649719   3.915367   4.558597   4.801667   1.528310
    20  H    4.488719   4.582917   5.508422   5.814440   2.166780
    21  H    4.055488   4.564343   4.851722   4.878450   2.155093
    22  O    3.878786   4.025227   4.474531   4.822973   2.405305
    23  H    3.290659   3.552540   3.667377   3.990815   2.439360
    24  C    5.237540   5.461047   6.496170   6.614589   3.176902
    25  H    5.199994   5.390137   6.396764   6.567987   2.887018
    26  C    6.932475   7.395960   8.009265   7.899696   4.935934
    27  H    6.883575   7.321388   7.908725   7.842593   4.734622
    28  O    5.708594   6.164508   6.843029   6.761720   3.877576
    29  C    6.457061   6.513191   7.778473   7.969630   4.446107
    30  H    6.719711   6.801593   8.047859   8.191593   4.976264
    31  O    6.549332   6.372218   7.898804   8.251472   4.553966
    32  H    5.944568   5.681101   7.310233   7.715452   4.173035
    33  C    7.669686   7.793330   8.937598   9.072102   5.494362
    34  H    7.671690   7.764635   8.896479   9.073495   5.356713
    35  O    8.860191   8.898636  10.167254  10.337730   6.742738
    36  H    8.860862   8.780675  10.193284  10.450839   6.754223
    37  C    7.970316   8.290968   9.151260   9.125872   5.902192
    38  H    8.235729   8.573955   9.431478   9.367292   6.356084
    39  O    9.150184   9.492160  10.280840  10.230262   7.000140
    40  H    9.778414  10.041422  10.960170  10.961177   7.598443
    41  C    7.550767   8.181242   8.483464   8.204639   5.830844
    42  H    8.511944   9.133156   9.417555   9.135504   6.699956
    43  H    7.839840   8.473125   8.798026   8.489070   6.293204
    44  O    6.911554   7.673376   7.673618   7.290875   5.427883
    45  H    6.051561   6.832721   6.831262   6.447640   4.712107
                    6          7          8          9         10
     6  H    0.000000
     7  O    2.069133   0.000000
     8  C    3.210408   2.370657   0.000000
     9  H    3.894176   2.609671   1.102556   0.000000
    10  O    4.214586   3.603107   1.402399   2.076103   0.000000
    11  H    4.723937   4.268837   1.914068   2.369125   0.963225
    12  C    2.689842   2.768223   1.517778   2.134541   2.403871
    13  H    2.447478   3.175965   2.136224   3.040127   2.617992
    14  O    4.031499   4.036270   2.346574   2.570758   2.780274
    15  H    4.187671   4.538071   3.184919   3.422810   3.676796
    16  C    2.170830   2.376412   2.524797   2.769127   3.755753
    17  H    3.076391   2.634630   2.812198   2.606484   4.116681
    18  O    2.763207   3.688498   3.702168   4.027889   4.718324
    19  C    2.155168   2.327408   4.292185   4.468733   5.601660
    20  H    2.434188   3.284019   5.026649   5.296850   6.284216
    21  H    3.056506   2.673388   4.495811   4.403711   5.882014
    22  O    2.712882   2.620339   4.921455   5.144076   6.134803
    23  H    2.841192   2.101807   4.467362   4.635680   5.636221
    24  C    3.545339   4.433920   4.900491   5.057643   6.025123
    25  H    3.254716   4.186326   5.177768   5.353533   6.396424
    26  C    5.589352   5.932448   6.533995   6.330820   7.746167
    27  H    5.387926   5.730335   6.726031   6.553961   8.019264
    28  O    4.528415   4.866678   5.186271   5.046104   6.352930
    29  C    4.536062   5.782970   6.047538   6.321808   7.003262
    30  H    5.078207   6.222601   6.071669   6.321943   6.888521
    31  O    4.309400   5.960011   6.334095   6.819866   7.187561
    32  H    3.789030   5.530835   5.699340   6.293375   6.441003
    33  C    5.688722   6.814983   7.336548   7.489893   8.383614
    34  H    5.527382   6.686776   7.553569   7.727840   8.680114
    35  O    6.811674   8.096036   8.460201   8.674017   9.398736
    36  H    6.668152   8.151830   8.537772   8.868422   9.419030
    37  C    6.347545   7.061471   7.507729   7.439586   8.612460
    38  H    6.794819   7.471065   7.578331   7.485590   8.573942
    39  O    7.469958   8.132090   8.778271   8.655661   9.934439
    40  H    7.961657   8.804078   9.393807   9.346905  10.497929
    41  C    6.641888   6.577334   7.032002   6.599954   8.230014
    42  H    7.495567   7.461672   8.070792   7.631375   9.293442
    43  H    7.069434   7.024600   7.118168   6.667972   8.199752
    44  O    6.384801   5.902159   6.478472   5.893230   7.727389
    45  H    5.687488   5.130485   5.543961   4.950986   6.775476
                   11         12         13         14         15
    11  H    0.000000
    12  C    2.461296   0.000000
    13  H    2.734294   1.100713   0.000000
    14  O    2.317231   1.411192   2.067961   0.000000
    15  H    3.202650   1.929056   2.351813   0.962483   0.000000
    16  C    3.916390   1.522987   2.134278   2.430888   2.516661
    17  H    4.216406   2.163268   3.052951   2.673556   2.811389
    18  O    4.688619   2.317269   2.522058   2.752870   2.309839
    19  C    6.083974   3.895200   4.160756   5.035553   5.113333
    20  H    6.691935   4.349735   4.452814   5.412688   5.306507
    21  H    6.291069   4.155055   4.665075   5.102422   5.178976
    22  O    6.777362   4.846461   5.000030   6.115126   6.309758
    23  H    6.350416   4.684521   4.914372   5.973354   6.311244
    24  C    6.006574   3.629597   3.893207   3.968239   3.425922
    25  H    6.531806   4.080284   4.290785   4.706283   4.304985
    26  C    7.657890   5.475704   6.013363   5.522928   4.988472
    27  H    8.058879   5.766519   6.258305   6.060887   5.616217
    28  O    6.242497   4.073167   4.642119   4.103177   3.597046
    29  C    6.876757   4.623612   4.637633   4.758487   3.997214
    30  H    6.613847   4.592490   4.630994   4.409342   3.528320
    31  O    7.148383   4.918806   4.621060   5.278356   4.577127
    32  H    6.403403   4.281054   3.837837   4.682469   4.032961
    33  C    8.270042   5.982494   6.089021   6.095903   5.338172
    34  H    8.684283   6.289985   6.365980   6.624642   5.961063
    35  O    9.209882   7.030728   7.021335   7.017639   6.168636
    36  H    9.264800   7.087758   6.929914   7.171019   6.329607
    37  C    8.439670   6.259279   6.613344   6.188192   5.469681
    38  H    8.280396   6.287965   6.664057   5.972787   5.184555
    39  O    9.792126   7.587669   7.955561   7.557606   6.862347
    40  H   10.327038   8.123516   8.393003   8.065884   7.303773
    41  C    8.082595   6.160183   6.883078   6.014071   5.575025
    42  H    9.165534   7.207125   7.900105   7.096660   6.636494
    43  H    7.926055   6.194552   6.932046   5.798895   5.297881
    44  O    7.670450   5.885316   6.740912   5.853526   5.635062
    45  H    6.712585   4.982232   5.880834   4.940437   4.790073
                   16         17         18         19         20
    16  C    0.000000
    17  H    1.095126   0.000000
    18  O    1.427375   2.069709   0.000000
    19  C    2.626562   2.858503   3.252165   0.000000
    20  H    3.017603   3.385490   3.153174   1.089191   0.000000
    21  H    2.774257   2.567287   3.453565   1.100722   1.781341
    22  O    3.814044   4.069475   4.556516   1.402677   1.999583
    23  H    3.854687   4.039421   4.846138   1.911465   2.780781
    24  C    2.410603   2.626827   1.391564   3.260164   2.865327
    25  H    2.679272   2.915498   2.065237   2.511889   1.911031
    26  C    4.190891   3.779716   3.566103   4.524237   4.195080
    27  H    4.334180   3.973127   3.864170   4.001094   3.594155
    28  O    2.881734   2.531592   2.274701   3.865440   3.706862
    29  C    3.693610   4.049171   2.347684   4.542696   3.905132
    30  H    3.942001   4.249831   2.556330   5.315398   4.814119
    31  O    4.136851   4.778507   2.843300   4.688896   3.901796
    32  H    3.738048   4.535136   2.501803   4.596815   3.947158
    33  C    4.874933   5.017710   3.675788   5.213210   4.454813
    34  H    5.040669   5.210627   3.997673   4.807564   3.927768
    35  O    6.079372   6.293384   4.765698   6.536040   5.717933
    36  H    6.208317   6.578226   4.860026   6.595393   5.708275
    37  C    5.105693   4.920360   4.110622   5.566882   5.010929
    38  H    5.333505   5.124494   4.278479   6.248097   5.779295
    39  O    6.351542   6.096362   5.436349   6.429142   5.815166
    40  H    6.947941   6.800181   5.900357   7.069902   6.362929
    41  C    4.985584   4.283609   4.624407   5.443978   5.337130
    42  H    5.974737   5.294487   5.572855   6.132965   5.941396
    43  H    5.223046   4.528079   4.769982   6.141455   6.060947
    44  O    4.717815   3.816440   4.774696   5.010833   5.169393
    45  H    3.895748   2.937310   4.084146   4.512579   4.785989
                   21         22         23         24         25
    21  H    0.000000
    22  O    2.082495   0.000000
    23  H    2.396234   0.963557   0.000000
    24  C    3.249893   4.627371   5.113635   0.000000
    25  H    2.581161   3.801824   4.421259   1.095848   0.000000
    26  C    3.964577   5.809851   6.310094   2.357258   2.584807
    27  H    3.424817   5.158477   5.744890   2.590422   2.329285
    28  O    3.439176   5.251608   5.629672   1.408217   2.055031
    29  C    4.662607   5.821960   6.405160   1.520893   2.150966
    30  H    5.380506   6.641312   7.128436   2.133022   3.044492
    31  O    5.108939   5.779128   6.427511   2.426550   2.657339
    32  H    5.129526   5.653527   6.204907   2.594880   2.925274
    33  C    5.160754   6.431934   7.120167   2.470308   2.720253
    34  H    4.803431   5.889618   6.667871   2.721963   2.509555
    35  O    6.552113   7.715199   8.430019   3.735782   4.057447
    36  H    6.768330   7.698388   8.441792   3.972787   4.215107
    37  C    5.210212   6.847087   7.445299   2.855152   3.219590
    38  H    5.888495   7.591172   8.113852   3.254792   3.900825
    39  O    5.994508   7.596606   8.256575   4.111077   4.230963
    40  H    6.740176   8.224219   8.928217   4.605906   4.758297
    41  C    4.654485   6.673409   7.039223   3.646843   3.930506
    42  H    5.319773   7.278100   7.706453   4.467805   4.609900
    43  H    5.410516   7.438206   7.749807   3.958999   4.497584
    44  O    4.053613   6.123163   6.340672   4.033724   4.167617
    45  H    3.604008   5.679114   5.813692   3.575493   3.815182
                   26         27         28         29         30
    26  C    0.000000
    27  H    1.099653   0.000000
    28  O    1.429474   2.073020   0.000000
    29  C    2.871311   3.244729   2.398856   0.000000
    30  H    3.263294   3.917218   2.637894   1.098192   0.000000
    31  O    4.130250   4.259681   3.645833   1.410166   2.081931
    32  H    4.652663   4.830696   3.890617   1.934409   2.318971
    33  C    2.485217   2.742176   2.829867   1.516427   2.148615
    34  H    2.737668   2.534083   3.235419   2.136391   3.048957
    35  O    3.706221   4.038923   4.095958   2.426852   2.660144
    36  H    4.401532   4.624525   4.615404   2.555011   2.869601
    37  C    1.523672   2.155319   2.406958   2.494794   2.761733
    38  H    2.148310   3.059102   2.659794   2.751732   2.562025
    39  O    2.373734   2.610115   3.623060   3.738355   4.083514
    40  H    3.199983   3.443086   4.307895   3.922596   4.208749
    41  C    1.514379   2.141283   2.358709   4.256016   4.414252
    42  H    2.135264   2.458890   3.307471   4.910396   5.138684
    43  H    2.136623   3.045012   2.616090   4.392727   4.273430
    44  O    2.407028   2.647177   2.763745   5.033142   5.260519
    45  H    2.518304   2.859937   2.335816   4.726594   4.894291
                   31         32         33         34         35
    31  O    0.000000
    32  H    0.961829   0.000000
    33  C    2.356439   3.197340   0.000000
    34  H    2.560872   3.449791   1.100447   0.000000
    35  O    2.847037   3.709153   1.411020   2.068086   0.000000
    36  H    2.460247   3.314874   1.931203   2.326195   0.962524
    37  C    3.706605   4.411925   1.518649   2.136292   2.361512
    38  H    4.042841   4.635578   2.136296   3.039622   2.574557
    39  O    4.759732   5.574478   2.411385   2.613942   2.823637
    40  H    4.780453   5.650971   2.479306   2.736567   2.378482
    41  C    5.583665   6.044773   3.856727   4.166091   4.894710
    42  H    6.186475   6.761391   4.194696   4.382355   5.089127
    43  H    5.791968   6.192263   4.115494   4.672209   4.972867
    44  O    6.279313   6.608262   4.890116   5.047710   6.079829
    45  H    5.940939   6.140620   4.878029   5.102924   6.121188
                   36         37         38         39         40
    36  H    0.000000
    37  C    3.199562   0.000000
    38  H    3.448968   1.100149   0.000000
    39  O    3.698062   1.407294   2.074971   0.000000
    40  H    3.239331   1.921200   2.367185   0.963077   0.000000
    41  C    5.699709   2.538448   2.754909   2.938609   3.846539
    42  H    5.946631   2.788806   3.114717   2.628673   3.542161
    43  H    5.815183   2.745227   2.503288   3.289629   4.062566
    44  O    6.802988   3.772605   4.053395   4.213691   5.154787
    45  H    6.771058   3.939615   4.137672   4.660918   5.561619
                   41         42         43         44         45
    41  C    0.000000
    42  H    1.089375   0.000000
    43  H    1.098442   1.777509   0.000000
    44  O    1.408671   2.029025   2.080696   0.000000
    45  H    1.916668   2.809992   2.329732   0.961562   0.000000
 Stoichiometry    C12H22O11
 Framework group  C1[X(C12H22O11)]
 Deg. of freedom   129
 Full point group                 C1      NOp   1
 Largest Abelian subgroup         C1      NOp   1
 Largest concise Abelian subgroup C1      NOp   1
                         Standard orientation:                         
 ---------------------------------------------------------------------
 Center     Atomic      Atomic             Coordinates (Angstroms)
 Number     Number       Type             X           Y           Z
 ---------------------------------------------------------------------
      1          6           0       -4.104099    0.087587    0.316980
      2          1           0       -4.292691   -0.750475    0.998763
      3          8           0       -5.266951    0.818599    0.254364
      4          1           0       -5.193317    1.449404   -0.468657
      5          6           0       -1.860771    0.234878    1.153442
      6          1           0       -2.083408   -0.646381    1.773184
      7          8           0       -3.072330    0.915330    0.843451
      8          6           0       -3.625845   -0.422800   -1.033526
      9          1           0       -3.482794    0.450309   -1.691437
     10          8           0       -4.578014   -1.308405   -1.558693
     11          1           0       -4.170453   -1.726569   -2.324745
     12          6           0       -2.283755   -1.112140   -0.868440
     13          1           0       -2.427742   -2.001271   -0.235760
     14          8           0       -1.870479   -1.495912   -2.162034
     15          1           0       -0.979394   -1.850915   -2.082570
     16          6           0       -1.255833   -0.218172   -0.187494
     17          1           0       -1.038225    0.655641   -0.810711
     18          8           0       -0.096782   -1.047156   -0.105116
     19          6           0       -1.071732    1.244614    1.986257
     20          1           0       -0.225917    0.762033    2.474160
     21          1           0       -0.694835    2.039261    1.324386
     22          8           0       -1.874170    1.755400    3.017128
     23          1           0       -2.715280    1.993636    2.611887
     24          6           0        1.106347   -0.438811    0.239625
     25          1           0        1.023802    0.118941    1.179296
     26          6           0        2.699742    1.128306   -0.509975
     27          1           0        2.593321    1.672889    0.439415
     28          8           0        1.483668    0.434577   -0.798594
     29          6           0        2.143952   -1.540230    0.392487
     30          1           0        2.191344   -2.094839   -0.554185
     31          8           0        1.846288   -2.390240    1.477590
     32          1           0        0.995739   -2.803620    1.302098
     33          6           0        3.492370   -0.906915    0.675740
     34          1           0        3.436552   -0.390018    1.645629
     35          8           0        4.530856   -1.862064    0.690350
     36          1           0        4.298975   -2.529301    1.344168
     37          6           0        3.834681    0.118726   -0.390646
     38          1           0        3.945816   -0.406374   -1.350983
     39          8           0        5.009173    0.818533   -0.057005
     40          1           0        5.672908    0.157464    0.166516
     41          6           0        2.900321    2.127069   -1.630504
     42          1           0        3.803763    2.703935   -1.436196
     43          1           0        3.029898    1.577345   -2.572623
     44          8           0        1.817838    3.025847   -1.699668
     45          1           0        1.026893    2.490173   -1.809494
 ---------------------------------------------------------------------
 Rotational constants (GHZ):           0.4119657           0.1343231           0.1304226
 Leave Link  202 at Thu Mar 16 17:59:15 2023, MaxMem=   262144000 cpu:               0.0 elap:               0.0
 (Enter /dragofs/sw/campus/0.2/software/gaussian/16.gaussian/gaussian/g16_legacy/l301.exe)
 Standard basis: 6-311G(d,p) (5D, 7F)
 Ernie: Thresh=  0.10000D-02 Tol=  0.10000D-05 Strict=F.
 There are   569 symmetry adapted cartesian basis functions of A   symmetry.
 There are   546 symmetry adapted basis functions of A   symmetry.
   546 basis functions,   912 primitive gaussians,   569 cartesian basis functions
    91 alpha electrons       91 beta electrons
       nuclear repulsion energy      2303.1786801480 Hartrees.
 IExCor= 4336 DFT=T Ex+Corr=M062X ExCW=0 ScaHFX=  0.540000
 ScaDFX=  1.000000  1.000000  1.000000  1.000000 ScalE2=  1.000000  1.000000
 IRadAn=      5 IRanWt=     -1 IRanGd=            0 ICorTp=0 IEmpDi=  4
 NAtoms=   45 NActive=   45 NUniq=   45 SFac= 1.00D+00 NAtFMM=   60 NAOKFM=F Big=F
 Integral buffers will be    131072 words long.
 Raffenetti 2 integral format.
 Two-electron integral symmetry is turned on.
 Leave Link  301 at Thu Mar 16 17:59:15 2023, MaxMem=   262144000 cpu:               0.4 elap:               0.1
 (Enter /dragofs/sw/campus/0.2/software/gaussian/16.gaussian/gaussian/g16_legacy/l302.exe)
 NPDir=0 NMtPBC=     1 NCelOv=     1 NCel=       1 NClECP=     1 NCelD=      1
         NCelK=      1 NCelE2=     1 NClLst=     1 CellRange=     0.0.
 One-electron integrals computed using PRISM.
 One-electron integral symmetry used in STVInt
 NBasis=   546 RedAO= T EigKep=  6.87D-04  NBF=   546
 NBsUse=   546 1.00D-06 EigRej= -1.00D+00 NBFU=   546
 Precomputing XC quadrature grid using
 IXCGrd= 4 IRadAn=           5 IRanWt=          -1 IRanGd=           0 AccXCQ= 0.00D+00.
 Generated NRdTot=       0 NPtTot=           0 NUsed=           0 NTot=          32
 NSgBfM=   557   557   557   557   557 MxSgAt=    45 MxSgA2=    45.
 Leave Link  302 at Thu Mar 16 17:59:16 2023, MaxMem=   262144000 cpu:               5.9 elap:               0.8
 (Enter /dragofs/sw/campus/0.2/software/gaussian/16.gaussian/gaussian/g16_legacy/l303.exe)
 DipDrv:  MaxL=1.
 Leave Link  303 at Thu Mar 16 17:59:16 2023, MaxMem=   262144000 cpu:               0.4 elap:               0.1
 (Enter /dragofs/sw/campus/0.2/software/gaussian/16.gaussian/gaussian/g16_legacy/l401.exe)
 ExpMin= 1.03D-01 ExpMax= 8.59D+03 ExpMxC= 1.30D+03 IAcc=3 IRadAn=         5 AccDes= 0.00D+00
 Harris functional with IExCor= 1009 and IRadAn=       5 diagonalized for initial guess.
 HarFok:  IExCor= 1009 AccDes= 0.00D+00 IRadAn=         5 IDoV= 1 UseB2=F ITyADJ=14
 ICtDFT=  3500011 ScaDFX=  1.000000  1.000000  1.000000  1.000000
 FoFCou: FMM=F IPFlag=           0 FMFlag=      100000 FMFlg1=           0
         NFxFlg=           0 DoJE=T BraDBF=F KetDBF=T FulRan=T
         wScrn=  0.000000 ICntrl=       500 IOpCl=  0 I1Cent=   200000004 NGrid=           0
         NMat0=    1 NMatS0=      1 NMatT0=    0 NMatD0=    1 NMtDS0=    0 NMtDT0=    0
 Petite list used in FoFCou.
 Harris En= -1297.11692259850    
 JPrj=0 DoOrth=F DoCkMO=F.
 Leave Link  401 at Thu Mar 16 17:59:21 2023, MaxMem=   262144000 cpu:              35.4 elap:               4.4
 (Enter /dragofs/sw/campus/0.2/software/gaussian/16.gaussian/gaussian/g16_legacy/l502.exe)
 Integral symmetry usage will be decided dynamically.
 Closed shell SCF:
 Using DIIS extrapolation, IDIIS=  1040.
 NGot=   262144000 LenX=   261486196 LenY=   261161866
 Requested convergence on RMS density matrix=1.00D-08 within 128 cycles.
 Requested convergence on MAX density matrix=1.00D-06.
 Requested convergence on             energy=1.00D-06.
 No special actions if energy rises.
 Fock matrices will be formed incrementally for  20 cycles.
 Integral accuracy reduced to 1.0D-05 until final iterations.

 Cycle   1  Pass 0  IDiag  1:
 FoFJK:  IHMeth= 1 ICntrl=       0 DoSepK=F KAlg= 0 I1Cent=           0 FoldK=F
 IRaf= 740000000 NMat=       1 IRICut=       1 DoRegI=T DoRafI=F ISym2E= 0 IDoP0=0 IntGTp=1.
 FoFCou: FMM=F IPFlag=           0 FMFlag=      100000 FMFlg1=           0
         NFxFlg=           0 DoJE=F BraDBF=F KetDBF=F FulRan=T
         wScrn=  0.000000 ICntrl=         0 IOpCl=  0 I1Cent=           0 NGrid=           0
         NMat0=    1 NMatS0=      1 NMatT0=    0 NMatD0=    1 NMtDS0=    0 NMtDT0=    0
 Symmetry not used in FoFCou.
 E= -1297.32743447049    
 DIIS: error= 1.72D-02 at cycle   1 NSaved=   1.
 NSaved= 1 IEnMin= 1 EnMin= -1297.32743447049     IErMin= 1 ErrMin= 1.72D-02
 ErrMax= 1.72D-02  0.00D+00 EMaxC= 1.00D-01 BMatC= 8.55D-01 BMatP= 8.55D-01
 IDIUse=3 WtCom= 8.28D-01 WtEn= 1.72D-01
 Coeff-Com:  0.100D+01
 Coeff-En:   0.100D+01
 Coeff:      0.100D+01
 Gap=     0.425 Goal=   None    Shift=    0.000
 GapD=    0.425 DampG=2.000 DampE=0.500 DampFc=1.0000 IDamp=-1.
 RMSDP=2.57D-03 MaxDP=1.87D-01              OVMax= 1.14D-01

 Cycle   2  Pass 0  IDiag  1:
 RMSU=  2.56D-03    CP:  1.03D+00
 E= -1297.41315454986     Delta-E=       -0.085720079363 Rises=F Damp=F
 DIIS: error= 1.81D-02 at cycle   2 NSaved=   2.
 NSaved= 2 IEnMin= 2 EnMin= -1297.41315454986     IErMin= 1 ErrMin= 1.72D-02
 ErrMax= 1.81D-02  0.00D+00 EMaxC= 1.00D-01 BMatC= 6.10D-01 BMatP= 8.55D-01
 IDIUse=3 WtCom= 8.19D-01 WtEn= 1.81D-01
 Coeff-Com:  0.454D+00 0.546D+00
 Coeff-En:   0.446D+00 0.554D+00
 Coeff:      0.452D+00 0.548D+00
 Gap=     0.403 Goal=   None    Shift=    0.000
 RMSDP=1.44D-03 MaxDP=9.36D-02 DE=-8.57D-02 OVMax= 5.86D-02

 Cycle   3  Pass 0  IDiag  1:
 RMSU=  4.61D-04    CP:  1.01D+00  4.69D-01
 E= -1297.80464447027     Delta-E=       -0.391489920409 Rises=F Damp=F
 DIIS: error= 3.90D-03 at cycle   3 NSaved=   3.
 NSaved= 3 IEnMin= 3 EnMin= -1297.80464447027     IErMin= 3 ErrMin= 3.90D-03
 ErrMax= 3.90D-03  0.00D+00 EMaxC= 1.00D-01 BMatC= 2.26D-02 BMatP= 6.10D-01
 IDIUse=3 WtCom= 9.61D-01 WtEn= 3.90D-02
 Coeff-Com:  0.659D-01 0.187D+00 0.747D+00
 Coeff-En:   0.000D+00 0.000D+00 0.100D+01
 Coeff:      0.634D-01 0.180D+00 0.757D+00
 Gap=     0.395 Goal=   None    Shift=    0.000
 RMSDP=2.71D-04 MaxDP=1.07D-02 DE=-3.91D-01 OVMax= 1.30D-02

 Cycle   4  Pass 0  IDiag  1:
 RMSU=  1.89D-04    CP:  1.02D+00  5.22D-01  7.03D-01
 E= -1297.81776402550     Delta-E=       -0.013119555235 Rises=F Damp=F
 DIIS: error= 1.50D-03 at cycle   4 NSaved=   4.
 NSaved= 4 IEnMin= 4 EnMin= -1297.81776402550     IErMin= 4 ErrMin= 1.50D-03
 ErrMax= 1.50D-03  0.00D+00 EMaxC= 1.00D-01 BMatC= 2.69D-03 BMatP= 2.26D-02
 IDIUse=3 WtCom= 9.85D-01 WtEn= 1.50D-02
 Coeff-Com:  0.279D-02 0.471D-01 0.345D+00 0.605D+00
 Coeff-En:   0.000D+00 0.000D+00 0.468D-01 0.953D+00
 Coeff:      0.275D-02 0.464D-01 0.341D+00 0.610D+00
 Gap=     0.386 Goal=   None    Shift=    0.000
 RMSDP=1.01D-04 MaxDP=3.55D-03 DE=-1.31D-02 OVMax= 4.68D-03

 Cycle   5  Pass 0  IDiag  1:
 RMSU=  3.61D-05    CP:  1.01D+00  5.16D-01  8.03D-01  5.75D-01
 E= -1297.82012540502     Delta-E=       -0.002361379520 Rises=F Damp=F
 DIIS: error= 1.45D-04 at cycle   5 NSaved=   5.
 NSaved= 5 IEnMin= 5 EnMin= -1297.82012540502     IErMin= 5 ErrMin= 1.45D-04
 ErrMax= 1.45D-04  0.00D+00 EMaxC= 1.00D-01 BMatC= 3.81D-05 BMatP= 2.69D-03
 IDIUse=3 WtCom= 9.99D-01 WtEn= 1.45D-03
 Coeff-Com: -0.195D-02 0.526D-02 0.566D-01 0.163D+00 0.777D+00
 Coeff-En:   0.000D+00 0.000D+00 0.000D+00 0.000D+00 0.100D+01
 Coeff:     -0.194D-02 0.525D-02 0.565D-01 0.163D+00 0.777D+00
 Gap=     0.385 Goal=   None    Shift=    0.000
 RMSDP=1.43D-05 MaxDP=6.28D-04 DE=-2.36D-03 OVMax= 6.03D-04

 Cycle   6  Pass 0  IDiag  1:
 RMSU=  9.87D-06    CP:  1.01D+00  5.17D-01  8.04D-01  6.18D-01  8.44D-01
 E= -1297.82015209050     Delta-E=       -0.000026685481 Rises=F Damp=F
 DIIS: error= 5.83D-05 at cycle   6 NSaved=   6.
 NSaved= 6 IEnMin= 6 EnMin= -1297.82015209050     IErMin= 6 ErrMin= 5.83D-05
 ErrMax= 5.83D-05  0.00D+00 EMaxC= 1.00D-01 BMatC= 5.23D-06 BMatP= 3.81D-05
 IDIUse=1 WtCom= 1.00D+00 WtEn= 0.00D+00
 Coeff-Com: -0.993D-03 0.144D-03 0.888D-02 0.453D-01 0.337D+00 0.610D+00
 Coeff:     -0.993D-03 0.144D-03 0.888D-02 0.453D-01 0.337D+00 0.610D+00
 Gap=     0.385 Goal=   None    Shift=    0.000
 RMSDP=4.34D-06 MaxDP=2.78D-04 DE=-2.67D-05 OVMax= 2.59D-04

 Initial convergence to 1.0D-05 achieved.  Increase integral accuracy.
 Cycle   7  Pass 1  IDiag  1:
 E= -1297.82008600704     Delta-E=        0.000066083466 Rises=F Damp=F
 DIIS: error= 3.84D-05 at cycle   1 NSaved=   1.
 NSaved= 1 IEnMin= 1 EnMin= -1297.82008600704     IErMin= 1 ErrMin= 3.84D-05
 ErrMax= 3.84D-05  0.00D+00 EMaxC= 1.00D-01 BMatC= 1.28D-06 BMatP= 1.28D-06
 IDIUse=1 WtCom= 1.00D+00 WtEn= 0.00D+00
 Coeff-Com:  0.100D+01
 Coeff:      0.100D+01
 Gap=     0.385 Goal=   None    Shift=    0.000
 RMSDP=4.34D-06 MaxDP=2.78D-04 DE= 6.61D-05 OVMax= 1.61D-04

 Cycle   8  Pass 1  IDiag  1:
 RMSU=  1.70D-05    CP:  1.00D+00
 E= -1297.82008677472     Delta-E=       -0.000000767683 Rises=F Damp=F
 DIIS: error= 2.40D-05 at cycle   2 NSaved=   2.
 NSaved= 2 IEnMin= 2 EnMin= -1297.82008677472     IErMin= 2 ErrMin= 2.40D-05
 ErrMax= 2.40D-05  0.00D+00 EMaxC= 1.00D-01 BMatC= 6.63D-07 BMatP= 1.28D-06
 IDIUse=1 WtCom= 1.00D+00 WtEn= 0.00D+00
 Coeff-Com:  0.391D+00 0.609D+00
 Coeff:      0.391D+00 0.609D+00
 Gap=     0.385 Goal=   None    Shift=    0.000
 RMSDP=1.66D-06 MaxDP=1.08D-04 DE=-7.68D-07 OVMax= 1.04D-04

 Cycle   9  Pass 1  IDiag  1:
 RMSU=  1.66D-06    CP:  1.00D+00  1.01D+00
 E= -1297.82008713574     Delta-E=       -0.000000361018 Rises=F Damp=F
 DIIS: error= 1.07D-05 at cycle   3 NSaved=   3.
 NSaved= 3 IEnMin= 3 EnMin= -1297.82008713574     IErMin= 3 ErrMin= 1.07D-05
 ErrMax= 1.07D-05  0.00D+00 EMaxC= 1.00D-01 BMatC= 1.25D-07 BMatP= 6.63D-07
 IDIUse=1 WtCom= 1.00D+00 WtEn= 0.00D+00
 Coeff-Com: -0.240D-01 0.296D+00 0.728D+00
 Coeff:     -0.240D-01 0.296D+00 0.728D+00
 Gap=     0.385 Goal=   None    Shift=    0.000
 RMSDP=6.19D-07 MaxDP=3.57D-05 DE=-3.61D-07 OVMax= 3.16D-05

 Cycle  10  Pass 1  IDiag  1:
 RMSU=  2.56D-07    CP:  1.00D+00  1.03D+00  7.25D-01
 E= -1297.82008722067     Delta-E=       -0.000000084935 Rises=F Damp=F
 DIIS: error= 6.33D-07 at cycle   4 NSaved=   4.
 NSaved= 4 IEnMin= 4 EnMin= -1297.82008722067     IErMin= 4 ErrMin= 6.33D-07
 ErrMax= 6.33D-07  0.00D+00 EMaxC= 1.00D-01 BMatC= 1.17D-09 BMatP= 1.25D-07
 IDIUse=1 WtCom= 1.00D+00 WtEn= 0.00D+00
 Coeff-Com: -0.124D-01 0.918D-01 0.246D+00 0.674D+00
 Coeff:     -0.124D-01 0.918D-01 0.246D+00 0.674D+00
 Gap=     0.385 Goal=   None    Shift=    0.000
 RMSDP=8.23D-08 MaxDP=4.70D-06 DE=-8.49D-08 OVMax= 4.13D-06

 Cycle  11  Pass 1  IDiag  1:
 RMSU=  7.94D-08    CP:  1.00D+00  1.03D+00  7.36D-01  9.86D-01
 E= -1297.82008722166     Delta-E=       -0.000000000989 Rises=F Damp=F
 DIIS: error= 3.21D-07 at cycle   5 NSaved=   5.
 NSaved= 5 IEnMin= 5 EnMin= -1297.82008722166     IErMin= 5 ErrMin= 3.21D-07
 ErrMax= 3.21D-07  0.00D+00 EMaxC= 1.00D-01 BMatC= 1.77D-10 BMatP= 1.17D-09
 IDIUse=1 WtCom= 1.00D+00 WtEn= 0.00D+00
 Coeff-Com: -0.564D-03-0.147D-01-0.283D-01 0.245D+00 0.799D+00
 Coeff:     -0.564D-03-0.147D-01-0.283D-01 0.245D+00 0.799D+00
 Gap=     0.385 Goal=   None    Shift=    0.000
 RMSDP=2.80D-08 MaxDP=1.39D-06 DE=-9.89D-10 OVMax= 1.77D-06

 Cycle  12  Pass 1  IDiag  1:
 RMSU=  1.87D-08    CP:  1.00D+00  1.03D+00  7.38D-01  1.06D+00  9.47D-01
 E= -1297.82008722181     Delta-E=       -0.000000000146 Rises=F Damp=F
 DIIS: error= 1.10D-07 at cycle   6 NSaved=   6.
 NSaved= 6 IEnMin= 6 EnMin= -1297.82008722181     IErMin= 6 ErrMin= 1.10D-07
 ErrMax= 1.10D-07  0.00D+00 EMaxC= 1.00D-01 BMatC= 1.75D-11 BMatP= 1.77D-10
 IDIUse=1 WtCom= 1.00D+00 WtEn= 0.00D+00
 Coeff-Com:  0.860D-03-0.141D-01-0.336D-01 0.402D-01 0.317D+00 0.690D+00
 Coeff:      0.860D-03-0.141D-01-0.336D-01 0.402D-01 0.317D+00 0.690D+00
 Gap=     0.385 Goal=   None    Shift=    0.000
 RMSDP=9.04D-09 MaxDP=4.59D-07 DE=-1.46D-10 OVMax= 6.66D-07

 SCF Done:  E(RM062X) =  -1297.82008722     A.U. after   12 cycles
            NFock= 12  Conv=0.90D-08     -V/T= 2.0029
 KE= 1.294112271621D+03 PE=-7.653348043661D+03 EE= 2.758237004670D+03
 Leave Link  502 at Thu Mar 16 18:01:58 2023, MaxMem=   262144000 cpu:            1258.3 elap:             157.7
 (Enter /dragofs/sw/campus/0.2/software/gaussian/16.gaussian/gaussian/g16_legacy/l601.exe)
 Copying SCF densities to generalized density rwf, IOpCl= 0 IROHF=0.

 **********************************************************************

            Population analysis using the SCF density.

 **********************************************************************

 Orbital symmetries:
       Occupied  (A) (A) (A) (A) (A) (A) (A) (A) (A) (A) (A) (A)
                 (A) (A) (A) (A) (A) (A) (A) (A) (A) (A) (A) (A)
                 (A) (A) (A) (A) (A) (A) (A) (A) (A) (A) (A) (A)
                 (A) (A) (A) (A) (A) (A) (A) (A) (A) (A) (A) (A)
                 (A) (A) (A) (A) (A) (A) (A) (A) (A) (A) (A) (A)
                 (A) (A) (A) (A) (A) (A) (A) (A) (A) (A) (A) (A)
                 (A) (A) (A) (A) (A) (A) (A) (A) (A) (A) (A) (A)
                 (A) (A) (A) (A) (A) (A) (A)
       Virtual   (A) (A) (A) (A) (A) (A) (A) (A) (A) (A) (A) (A)
                 (A) (A) (A) (A) (A) (A) (A) (A) (A) (A) (A) (A)
                 (A) (A) (A) (A) (A) (A) (A) (A) (A) (A) (A) (A)
                 (A) (A) (A) (A) (A) (A) (A) (A) (A) (A) (A) (A)
                 (A) (A) (A) (A) (A) (A) (A) (A) (A) (A) (A) (A)
                 (A) (A) (A) (A) (A) (A) (A) (A) (A) (A) (A) (A)
                 (A) (A) (A) (A) (A) (A) (A) (A) (A) (A) (A) (A)
                 (A) (A) (A) (A) (A) (A) (A) (A) (A) (A) (A) (A)
                 (A) (A) (A) (A) (A) (A) (A) (A) (A) (A) (A) (A)
                 (A) (A) (A) (A) (A) (A) (A) (A) (A) (A) (A) (A)
                 (A) (A) (A) (A) (A) (A) (A) (A) (A) (A) (A) (A)
                 (A) (A) (A) (A) (A) (A) (A) (A) (A) (A) (A) (A)
                 (A) (A) (A) (A) (A) (A) (A) (A) (A) (A) (A) (A)
                 (A) (A) (A) (A) (A) (A) (A) (A) (A) (A) (A) (A)
                 (A) (A) (A) (A) (A) (A) (A) (A) (A) (A) (A) (A)
                 (A) (A) (A) (A) (A) (A) (A) (A) (A) (A) (A) (A)
                 (A) (A) (A) (A) (A) (A) (A) (A) (A) (A) (A) (A)
                 (A) (A) (A) (A) (A) (A) (A) (A) (A) (A) (A) (A)
                 (A) (A) (A) (A) (A) (A) (A) (A) (A) (A) (A) (A)
                 (A) (A) (A) (A) (A) (A) (A) (A) (A) (A) (A) (A)
                 (A) (A) (A) (A) (A) (A) (A) (A) (A) (A) (A) (A)
                 (A) (A) (A) (A) (A) (A) (A) (A) (A) (A) (A) (A)
                 (A) (A) (A) (A) (A) (A) (A) (A) (A) (A) (A) (A)
                 (A) (A) (A) (A) (A) (A) (A) (A) (A) (A) (A) (A)
                 (A) (A) (A) (A) (A) (A) (A) (A) (A) (A) (A) (A)
                 (A) (A) (A) (A) (A) (A) (A) (A) (A) (A) (A) (A)
                 (A) (A) (A) (A) (A) (A) (A) (A) (A) (A) (A) (A)
                 (A) (A) (A) (A) (A) (A) (A) (A) (A) (A) (A) (A)
                 (A) (A) (A) (A) (A) (A) (A) (A) (A) (A) (A) (A)
                 (A) (A) (A) (A) (A) (A) (A) (A) (A) (A) (A) (A)
                 (A) (A) (A) (A) (A) (A) (A) (A) (A) (A) (A) (A)
                 (A) (A) (A) (A) (A) (A) (A) (A) (A) (A) (A) (A)
                 (A) (A) (A) (A) (A) (A) (A) (A) (A) (A) (A) (A)
                 (A) (A) (A) (A) (A) (A) (A) (A) (A) (A) (A) (A)
                 (A) (A) (A) (A) (A) (A) (A) (A) (A) (A) (A) (A)
                 (A) (A) (A) (A) (A) (A) (A) (A) (A) (A) (A) (A)
                 (A) (A) (A) (A) (A) (A) (A) (A) (A) (A) (A) (A)
                 (A) (A) (A) (A) (A) (A) (A) (A) (A) (A) (A)
 The electronic state is 1-A.
 Alpha  occ. eigenvalues --  -19.67451 -19.65935 -19.65225 -19.64842 -19.64043
 Alpha  occ. eigenvalues --  -19.63889 -19.63859 -19.63070 -19.62823 -19.61654
 Alpha  occ. eigenvalues --  -19.61424 -10.66914 -10.65717 -10.62214 -10.61750
 Alpha  occ. eigenvalues --  -10.61386 -10.61316 -10.60937 -10.60874 -10.60697
 Alpha  occ. eigenvalues --  -10.60675 -10.59853 -10.58885  -1.24439  -1.22401
 Alpha  occ. eigenvalues --   -1.19129  -1.18678  -1.17873  -1.16994  -1.16278
 Alpha  occ. eigenvalues --   -1.15363  -1.15256  -1.14561  -1.14011  -0.92692
 Alpha  occ. eigenvalues --   -0.90824  -0.88736  -0.88219  -0.81611  -0.78848
 Alpha  occ. eigenvalues --   -0.76356  -0.73584  -0.72504  -0.72325  -0.70690
 Alpha  occ. eigenvalues --   -0.69935  -0.65645  -0.65250  -0.64122  -0.62986
 Alpha  occ. eigenvalues --   -0.62391  -0.61250  -0.59587  -0.59308  -0.58960
 Alpha  occ. eigenvalues --   -0.58005  -0.57027  -0.56653  -0.55748  -0.55175
 Alpha  occ. eigenvalues --   -0.54447  -0.53444  -0.52913  -0.51389  -0.51009
 Alpha  occ. eigenvalues --   -0.50625  -0.50130  -0.49262  -0.48041  -0.47509
 Alpha  occ. eigenvalues --   -0.46612  -0.46227  -0.45541  -0.45029  -0.44001
 Alpha  occ. eigenvalues --   -0.43451  -0.43079  -0.42787  -0.41890  -0.40520
 Alpha  occ. eigenvalues --   -0.39803  -0.39237  -0.38334  -0.37752  -0.37580
 Alpha  occ. eigenvalues --   -0.36458  -0.36284  -0.35715  -0.35300  -0.35129
 Alpha  occ. eigenvalues --   -0.34796
 Alpha virt. eigenvalues --    0.03736   0.04977   0.05520   0.06221   0.07228
 Alpha virt. eigenvalues --    0.07263   0.08296   0.09183   0.09943   0.10582
 Alpha virt. eigenvalues --    0.11036   0.11598   0.11927   0.12389   0.13363
 Alpha virt. eigenvalues --    0.13844   0.14579   0.14870   0.15968   0.16531
 Alpha virt. eigenvalues --    0.16800   0.17605   0.18367   0.18783   0.19798
 Alpha virt. eigenvalues --    0.20222   0.21486   0.21711   0.22836   0.23392
 Alpha virt. eigenvalues --    0.24435   0.24851   0.25431   0.25967   0.27218
 Alpha virt. eigenvalues --    0.28702   0.28993   0.29899   0.30680   0.31720
 Alpha virt. eigenvalues --    0.31973   0.33326   0.33993   0.35095   0.35475
 Alpha virt. eigenvalues --    0.36897   0.38951   0.39405   0.39773   0.40157
 Alpha virt. eigenvalues --    0.41047   0.42150   0.42314   0.43402   0.44046
 Alpha virt. eigenvalues --    0.44339   0.45280   0.45882   0.46505   0.47059
 Alpha virt. eigenvalues --    0.47882   0.48659   0.49220   0.50020   0.50296
 Alpha virt. eigenvalues --    0.51358   0.51761   0.52245   0.52578   0.52876
 Alpha virt. eigenvalues --    0.53637   0.53991   0.54957   0.55958   0.56161
 Alpha virt. eigenvalues --    0.56484   0.56837   0.57652   0.58790   0.58956
 Alpha virt. eigenvalues --    0.59626   0.60467   0.61419   0.62126   0.62457
 Alpha virt. eigenvalues --    0.62902   0.63283   0.63589   0.64040   0.64294
 Alpha virt. eigenvalues --    0.64658   0.65068   0.65927   0.66680   0.67357
 Alpha virt. eigenvalues --    0.67642   0.68407   0.69084   0.69363   0.70764
 Alpha virt. eigenvalues --    0.71205   0.74113   0.75434   0.77535   0.79332
 Alpha virt. eigenvalues --    0.82407   0.83029   0.84565   0.86293   0.86660
 Alpha virt. eigenvalues --    0.88284   0.88797   0.89663   0.89922   0.90586
 Alpha virt. eigenvalues --    0.91529   0.92624   0.93247   0.93796   0.94794
 Alpha virt. eigenvalues --    0.95539   0.95752   0.97197   0.97937   0.98500
 Alpha virt. eigenvalues --    0.99057   0.99546   1.00935   1.01886   1.02667
 Alpha virt. eigenvalues --    1.03632   1.04196   1.04714   1.05625   1.06845
 Alpha virt. eigenvalues --    1.07239   1.08698   1.10207   1.11236   1.11693
 Alpha virt. eigenvalues --    1.12271   1.12974   1.13218   1.14194   1.15253
 Alpha virt. eigenvalues --    1.16073   1.16875   1.17335   1.19909   1.21368
 Alpha virt. eigenvalues --    1.21771   1.22851   1.23731   1.25719   1.26015
 Alpha virt. eigenvalues --    1.27213   1.29566   1.30755   1.33046   1.34578
 Alpha virt. eigenvalues --    1.36800   1.37760   1.38536   1.40447   1.42054
 Alpha virt. eigenvalues --    1.42399   1.42948   1.43483   1.44474   1.44665
 Alpha virt. eigenvalues --    1.45622   1.47250   1.47814   1.48064   1.50018
 Alpha virt. eigenvalues --    1.50934   1.51053   1.51389   1.51835   1.52222
 Alpha virt. eigenvalues --    1.52542   1.53376   1.54108   1.54243   1.55218
 Alpha virt. eigenvalues --    1.56196   1.56670   1.57587   1.57726   1.58946
 Alpha virt. eigenvalues --    1.59587   1.59689   1.60368   1.61142   1.61700
 Alpha virt. eigenvalues --    1.62760   1.63104   1.63828   1.64334   1.65156
 Alpha virt. eigenvalues --    1.65923   1.66445   1.67035   1.68214   1.69470
 Alpha virt. eigenvalues --    1.70176   1.70672   1.71172   1.72950   1.74358
 Alpha virt. eigenvalues --    1.74512   1.75696   1.75941   1.76871   1.77429
 Alpha virt. eigenvalues --    1.79017   1.79605   1.80664   1.81223   1.81573
 Alpha virt. eigenvalues --    1.83483   1.84130   1.84984   1.86917   1.87364
 Alpha virt. eigenvalues --    1.88403   1.89736   1.90124   1.90405   1.92016
 Alpha virt. eigenvalues --    1.92338   1.94243   1.95568   1.95988   1.96483
 Alpha virt. eigenvalues --    1.97958   1.99111   2.00522   2.01435   2.02977
 Alpha virt. eigenvalues --    2.03659   2.04561   2.05608   2.06112   2.07370
 Alpha virt. eigenvalues --    2.07978   2.08452   2.09237   2.09898   2.10649
 Alpha virt. eigenvalues --    2.11924   2.12345   2.13682   2.14350   2.15133
 Alpha virt. eigenvalues --    2.15614   2.17072   2.18133   2.18423   2.18673
 Alpha virt. eigenvalues --    2.19108   2.22671   2.23756   2.23850   2.24484
 Alpha virt. eigenvalues --    2.25522   2.28757   2.29823   2.30529   2.32195
 Alpha virt. eigenvalues --    2.34426   2.35131   2.40119   2.41206   2.43144
 Alpha virt. eigenvalues --    2.44197   2.45666   2.47401   2.49145   2.49465
 Alpha virt. eigenvalues --    2.50465   2.52832   2.53679   2.53768   2.54463
 Alpha virt. eigenvalues --    2.55029   2.56815   2.57482   2.58030   2.58888
 Alpha virt. eigenvalues --    2.60044   2.61242   2.62772   2.63522   2.64486
 Alpha virt. eigenvalues --    2.66388   2.74578   2.75722   2.77089   2.77562
 Alpha virt. eigenvalues --    2.79703   2.80425   2.81138   2.82925   2.83215
 Alpha virt. eigenvalues --    2.84618   2.85584   2.86266   2.88710   2.90774
 Alpha virt. eigenvalues --    2.92547   2.93386   2.94732   2.97177   2.97964
 Alpha virt. eigenvalues --    2.98367   2.99543   3.01050   3.02178   3.02636
 Alpha virt. eigenvalues --    3.03646   3.05084   3.07162   3.08416   3.10074
 Alpha virt. eigenvalues --    3.12024   3.12412   3.12984   3.15140   3.16887
 Alpha virt. eigenvalues --    3.17185   3.17655   3.19258   3.19613   3.20216
 Alpha virt. eigenvalues --    3.20731   3.21119   3.21386   3.21831   3.22186
 Alpha virt. eigenvalues --    3.23236   3.24344   3.25808   3.26635   3.28625
 Alpha virt. eigenvalues --    3.30060   3.31490   3.32106   3.32763   3.33380
 Alpha virt. eigenvalues --    3.34910   3.35807   3.38011   3.38777   3.39517
 Alpha virt. eigenvalues --    3.40541   3.41773   3.43964   3.44517   3.46030
 Alpha virt. eigenvalues --    3.48650   3.53333   3.54462   3.55070   3.57295
[...]
    31  O   -0.001091   0.007411  -0.000108   0.000001   0.000000  -0.048696
    32  H    0.000536   0.001432  -0.000065  -0.000044   0.000002  -0.005382
    33  C   -0.000008   0.000029  -0.000000  -0.000000  -0.000000  -0.061000
    34  H   -0.000021   0.000097  -0.000004   0.000000  -0.000000  -0.001225
    35  O    0.000000  -0.000001   0.000000  -0.000000  -0.000000   0.006851
    36  H    0.000001  -0.000013   0.000000  -0.000000  -0.000000   0.001797
    37  C    0.000001  -0.000001  -0.000001  -0.000000   0.000000   0.003812
    38  H    0.000000   0.000001   0.000000   0.000000  -0.000000   0.000323
    39  O    0.000000   0.000000   0.000000   0.000000  -0.000000  -0.000514
    40  H    0.000000  -0.000000  -0.000000   0.000000   0.000000  -0.000348
    41  C    0.000000   0.000001   0.000000   0.000000  -0.000000   0.005044
    42  H    0.000000  -0.000000   0.000000  -0.000000   0.000000  -0.000120
    43  H    0.000000   0.000000   0.000000  -0.000000  -0.000000  -0.001041
    44  O   -0.000000   0.000000  -0.000000  -0.000000   0.000000  -0.000815
    45  H   -0.000001  -0.000001  -0.000009   0.000000   0.000000  -0.000823
              25         26         27         28         29         30
     1  C   -0.000041  -0.000000   0.000000   0.000010   0.000001  -0.000001
     2  H   -0.000012   0.000000   0.000000   0.000000  -0.000000  -0.000000
     3  O   -0.000000  -0.000000  -0.000000  -0.000000   0.000000  -0.000000
     4  H   -0.000000   0.000000  -0.000000   0.000000   0.000000  -0.000000
     5  C    0.000396   0.000061  -0.000026   0.000187   0.000004   0.000063
     6  H   -0.000064  -0.000003  -0.000000   0.000003   0.000082   0.000003
     7  O   -0.000111  -0.000000   0.000000   0.000000  -0.000001  -0.000000
     8  C    0.000170  -0.000000  -0.000003  -0.000157  -0.000003   0.000011
     9  H   -0.000020  -0.000003   0.000005  -0.000070  -0.000005   0.000001
    10  O   -0.000001   0.000000   0.000000  -0.000000  -0.000000  -0.000000
    11  H   -0.000002   0.000000   0.000000   0.000012   0.000001  -0.000001
    12  C    0.001725   0.000221   0.000076  -0.003610  -0.000998   0.000229
    13  H    0.000076   0.000023   0.000003  -0.000262  -0.000127   0.000078
    14  O   -0.000051   0.000082  -0.000092  -0.011882  -0.000179   0.000005
    15  H    0.002275  -0.006100   0.000704   0.020962  -0.000009   0.000578
    16  C   -0.017850  -0.000099  -0.000290   0.005590   0.008608  -0.002014
    17  H   -0.000127   0.000137  -0.000048   0.003884   0.000875  -0.000050
    18  O   -0.047227   0.003730  -0.000049  -0.054155  -0.032656   0.002269
    19  C   -0.000916  -0.000008   0.000001   0.000004  -0.000146  -0.000092
    20  H    0.001153   0.000037  -0.000007   0.000185  -0.000907   0.000339
    21  H   -0.000101  -0.000019   0.000005  -0.000037   0.000048  -0.000009
    22  O    0.000012  -0.000000   0.000000  -0.000000   0.000001   0.000000
    23  H    0.000007   0.000000  -0.000000   0.000000  -0.000000  -0.000000
    24  C    0.408454  -0.074448  -0.010028   0.203637   0.182639  -0.049131
    25  H    0.597653   0.002902   0.007048  -0.055370  -0.065503   0.012517
    26  C    0.002902   5.422298   0.387542   0.191304  -0.011059   0.002102
    27  H    0.007048   0.387542   0.547256  -0.038956   0.001981   0.000306
    28  O   -0.055370   0.191304  -0.038956   8.289079  -0.031191   0.002234
    29  C   -0.065503  -0.011059   0.001981  -0.031191   5.285141   0.384148
    30  H    0.012517   0.002102   0.000306   0.002234   0.384148   0.554319
    31  O    0.008308   0.000168  -0.000126   0.001904   0.246911  -0.034895
    32  H   -0.001622  -0.000005   0.000028   0.000080  -0.036203  -0.008536
    33  C   -0.001910  -0.022640  -0.013215  -0.004404   0.213825  -0.046191
    34  H    0.005676  -0.002165   0.005197   0.000558  -0.047365   0.010486
    35  O   -0.000121   0.002869  -0.000078  -0.000066  -0.042511   0.004573
    36  H   -0.000065  -0.000885  -0.000077  -0.000036  -0.011123  -0.001640
    37  C   -0.005089   0.105692  -0.054350  -0.040415  -0.062676  -0.002493
    38  H   -0.000043  -0.045478   0.010335   0.002739   0.001664   0.006337
    39  O   -0.000081  -0.046628   0.008084   0.001500   0.006694   0.000014
    40  H   -0.000023   0.011118  -0.000699  -0.000261   0.001622  -0.000065
    41  C    0.000920   0.298916  -0.030716  -0.042383  -0.001434  -0.000066
    42  H    0.000092  -0.041621  -0.007165   0.004371   0.000001   0.000010
    43  H   -0.000002  -0.057424   0.011959  -0.003462   0.000000  -0.000011
    44  O   -0.000242  -0.039709   0.008761  -0.003641  -0.000007   0.000001
    45  H   -0.000585  -0.006856  -0.002407   0.009697   0.000055  -0.000045
              31         32         33         34         35         36
     1  C   -0.000000   0.000001  -0.000000  -0.000000  -0.000000   0.000000
     2  H    0.000000   0.000000  -0.000000   0.000000   0.000000  -0.000000
     3  O    0.000000   0.000000  -0.000000  -0.000000   0.000000   0.000000
     4  H   -0.000000  -0.000000   0.000000   0.000000  -0.000000  -0.000000
     5  C    0.000120  -0.000034   0.000016   0.000001   0.000000  -0.000000
     6  H   -0.000016   0.000058   0.000006  -0.000000   0.000000  -0.000000
     7  O   -0.000000   0.000005   0.000000  -0.000000   0.000000   0.000000
     8  C    0.000000  -0.000002   0.000000   0.000000   0.000000  -0.000000
     9  H    0.000000   0.000000   0.000000   0.000000  -0.000000  -0.000000
    10  O    0.000000   0.000000   0.000000  -0.000000  -0.000000   0.000000
    11  H   -0.000000   0.000000  -0.000000  -0.000000   0.000000   0.000000
    12  C    0.000001   0.000047   0.000042   0.000001  -0.000000  -0.000000
    13  H   -0.000001   0.000016   0.000009   0.000000  -0.000000  -0.000000
    14  O    0.000000  -0.000003  -0.000001   0.000001  -0.000000  -0.000000
    15  H    0.000002   0.000007  -0.000228  -0.000013  -0.000000  -0.000000
    16  C   -0.000955  -0.000647  -0.000573  -0.000047   0.000002   0.000003
    17  H   -0.000179   0.000125   0.000108  -0.000050   0.000001  -0.000000
    18  O   -0.001222   0.008666   0.003346  -0.000180  -0.000014  -0.000008
    19  C   -0.001091   0.000536  -0.000008  -0.000021   0.000000   0.000001
    20  H    0.007411   0.001432   0.000029   0.000097  -0.000001  -0.000013
    21  H   -0.000108  -0.000065  -0.000000  -0.000004   0.000000   0.000000
    22  O    0.000001  -0.000044  -0.000000   0.000000  -0.000000  -0.000000
    23  H    0.000000   0.000002  -0.000000  -0.000000  -0.000000  -0.000000
    24  C   -0.048696  -0.005382  -0.061000  -0.001225   0.006851   0.001797
    25  H    0.008308  -0.001622  -0.001910   0.005676  -0.000121  -0.000065
    26  C    0.000168  -0.000005  -0.022640  -0.002165   0.002869  -0.000885
    27  H   -0.000126   0.000028  -0.013215   0.005197  -0.000078  -0.000077
    28  O    0.001904   0.000080  -0.004404   0.000558  -0.000066  -0.000036
    29  C    0.246911  -0.036203   0.213825  -0.047365  -0.042511  -0.011123
    30  H   -0.034895  -0.008536  -0.046191   0.010486   0.004573  -0.001640
    31  O    7.957637   0.321517  -0.045935   0.001856  -0.002041   0.014737
    32  H    0.321517   0.435069   0.009336  -0.000873  -0.000346  -0.000540
    33  C   -0.045935   0.009336   5.298392   0.376670   0.246959  -0.040661
    34  H    0.001856  -0.000873   0.376670   0.567782  -0.036383  -0.005211
    35  O   -0.002041  -0.000346   0.246959  -0.036383   7.963980   0.325007
    36  H    0.014737  -0.000540  -0.040661  -0.005211   0.325007   0.430738
    37  C    0.003908  -0.000637   0.205995  -0.051104  -0.049085   0.012399
    38  H   -0.000225  -0.000028  -0.057310   0.011342   0.003642  -0.000793
    39  O   -0.000016   0.000006  -0.029943   0.006972  -0.003827  -0.000485
    40  H   -0.000021   0.000006  -0.005265  -0.001638   0.016019  -0.000883
    41  C    0.000008  -0.000002   0.006699  -0.000641  -0.000053   0.000022
    42  H    0.000000  -0.000000   0.000245   0.000020  -0.000004   0.000002
    43  H    0.000001   0.000000  -0.000410  -0.000055  -0.000006  -0.000002
    44  O   -0.000000   0.000000  -0.000200  -0.000006   0.000000  -0.000000
    45  H   -0.000001  -0.000000  -0.000021  -0.000006   0.000000   0.000000
              37         38         39         40         41         42
     1  C    0.000000   0.000000  -0.000000   0.000000  -0.000000  -0.000000
     2  H    0.000000   0.000000   0.000000  -0.000000   0.000000   0.000000
     3  O    0.000000  -0.000000  -0.000000  -0.000000   0.000000   0.000000
     4  H    0.000000  -0.000000  -0.000000   0.000000   0.000000   0.000000
     5  C    0.000001  -0.000001  -0.000000   0.000000  -0.000002   0.000000
     6  H   -0.000001  -0.000000   0.000000   0.000000   0.000000  -0.000000
     7  O   -0.000000  -0.000000   0.000000  -0.000000   0.000000  -0.000000
     8  C   -0.000000  -0.000000  -0.000000  -0.000000   0.000004   0.000000
     9  H   -0.000001   0.000000   0.000000  -0.000000   0.000004  -0.000000
    10  O   -0.000000   0.000000   0.000000  -0.000000  -0.000000  -0.000000
    11  H    0.000000   0.000000  -0.000000   0.000000  -0.000004  -0.000000
    12  C   -0.000072   0.000002   0.000000  -0.000000   0.000145  -0.000004
    13  H   -0.000009  -0.000001   0.000000  -0.000000  -0.000009  -0.000001
    14  O   -0.000007  -0.000009   0.000000  -0.000000   0.000055  -0.000006
    15  H    0.000518   0.000064   0.000002   0.000002   0.002378   0.000241
    16  C    0.000400  -0.000003  -0.000001  -0.000000  -0.000207   0.000000
    17  H    0.000213  -0.000010  -0.000001   0.000001  -0.000228  -0.000007
    18  O   -0.000585  -0.000062   0.000000   0.000000  -0.000174   0.000006
    19  C    0.000001   0.000000   0.000000   0.000000   0.000000   0.000000
    20  H   -0.000001   0.000001   0.000000  -0.000000   0.000001  -0.000000
    21  H   -0.000001   0.000000   0.000000  -0.000000   0.000000   0.000000
    22  O   -0.000000   0.000000   0.000000   0.000000   0.000000  -0.000000
    23  H    0.000000  -0.000000  -0.000000   0.000000  -0.000000   0.000000
    24  C    0.003812   0.000323  -0.000514  -0.000348   0.005044  -0.000120
    25  H   -0.005089  -0.000043  -0.000081  -0.000023   0.000920   0.000092
    26  C    0.105692  -0.045478  -0.046628   0.011118   0.298916  -0.041621
    27  H   -0.054350   0.010335   0.008084  -0.000699  -0.030716  -0.007165
    28  O   -0.040415   0.002739   0.001500  -0.000261  -0.042383   0.004371
    29  C   -0.062676   0.001664   0.006694   0.001622  -0.001434   0.000001
    30  H   -0.002493   0.006337   0.000014  -0.000065  -0.000066   0.000010
    31  O    0.003908  -0.000225  -0.000016  -0.000021   0.000008   0.000000
    32  H   -0.000637  -0.000028   0.000006   0.000006  -0.000002  -0.000000
    33  C    0.205995  -0.057310  -0.029943  -0.005265   0.006699   0.000245
    34  H   -0.051104   0.011342   0.006972  -0.001638  -0.000641   0.000020
    35  O   -0.049085   0.003642  -0.003827   0.016019  -0.000053  -0.000004
    36  H    0.012399  -0.000793  -0.000485  -0.000883   0.000022   0.000002
    37  C    5.375039   0.381160   0.220410  -0.046045  -0.048644  -0.002039
    38  H    0.381160   0.572811  -0.033128  -0.004467  -0.010163   0.000007
    39  O    0.220410  -0.033128   7.960575   0.321714  -0.000835   0.011302
    40  H   -0.046045  -0.004467   0.321714   0.435432  -0.000271  -0.000217
    41  C   -0.048644  -0.010163  -0.000835  -0.000271   4.810354   0.403970
    42  H   -0.002039   0.000007   0.011302  -0.000217   0.403970   0.529073
    43  H   -0.001370   0.006514  -0.000343  -0.000125   0.396418  -0.037104
    44  O    0.005745  -0.000002   0.000002   0.000010   0.279240  -0.029617
    45  H    0.000355  -0.000098  -0.000030   0.000002  -0.048454   0.006911
              43         44         45
     1  C   -0.000000  -0.000000   0.000051
     2  H    0.000000  -0.000000   0.000000
     3  O    0.000000   0.000000  -0.000000
     4  H    0.000000   0.000000  -0.000002
     5  C   -0.000001  -0.000000   0.000080
     6  H   -0.000000  -0.000000  -0.000001
     7  O    0.000000  -0.000000  -0.000001
     8  C    0.000000  -0.000005  -0.000326
     9  H    0.000002  -0.000031   0.000431
    10  O   -0.000000   0.000000  -0.000006
    11  H   -0.000000   0.000001   0.000046
    12  C    0.000016   0.000058  -0.003022
    13  H    0.000005  -0.000018   0.000529
    14  O   -0.000177  -0.002282   0.025736
    15  H    0.000278   0.001541  -0.005519
    16  C   -0.000032   0.000029   0.001122
    17  H    0.000031   0.000511   0.001706
    18  O   -0.000013   0.000002  -0.000092
    19  C    0.000000  -0.000000  -0.000001
    20  H    0.000000   0.000000  -0.000001
    21  H    0.000000  -0.000000  -0.000009
    22  O   -0.000000  -0.000000   0.000000
    23  H   -0.000000   0.000000   0.000000
    24  C   -0.001041  -0.000815  -0.000823
    25  H   -0.000002  -0.000242  -0.000585
    26  C   -0.057424  -0.039709  -0.006856
    27  H    0.011959   0.008761  -0.002407
    28  O   -0.003462  -0.003641   0.009697
    29  C    0.000000  -0.000007   0.000055
    30  H   -0.000011   0.000001  -0.000045
    31  O    0.000001  -0.000000  -0.000001
    32  H    0.000000   0.000000  -0.000000
    33  C   -0.000410  -0.000200  -0.000021
    34  H   -0.000055  -0.000006  -0.000006
    35  O   -0.000006   0.000000   0.000000
    36  H   -0.000002  -0.000000   0.000000
    37  C   -0.001370   0.005745   0.000355
    38  H    0.006514  -0.000002  -0.000098
    39  O   -0.000343   0.000002  -0.000030
    40  H   -0.000125   0.000010   0.000002
    41  C    0.396418   0.279240  -0.048454
    42  H   -0.037104  -0.029617   0.006911
    43  H    0.601554  -0.036459  -0.005947
    44  O   -0.036459   7.900579   0.321033
    45  H   -0.005947   0.321033   0.460409
 Mulliken charges:
               1
     1  C    0.226681
     2  H    0.149240
     3  O   -0.370743
     4  H    0.251693
     5  C   -0.049951
     6  H    0.162367
     7  O   -0.400920
     8  C    0.002980
     9  H    0.138843
    10  O   -0.407480
    11  H    0.270883
    12  C    0.005043
    13  H    0.163842
    14  O   -0.446312
    15  H    0.280625
    16  C   -0.050214
    17  H    0.173627
    18  O   -0.401975
    19  C   -0.003559
    20  H    0.132181
    21  H    0.126828
    22  O   -0.412557
    23  H    0.262045
    24  C    0.239833
    25  H    0.147794
    26  C   -0.074050
    27  H    0.169039
    28  O   -0.447582
    29  C    0.009802
    30  H    0.164615
    31  O   -0.428964
    32  H    0.278033
    33  C   -0.031762
    34  H    0.160328
    35  O   -0.435366
    36  H    0.277716
    37  C    0.048980
    38  H    0.154879
    39  O   -0.421443
    40  H    0.274404
    41  C   -0.019892
    42  H    0.161655
    43  H    0.127205
    44  O   -0.404480
    45  H    0.246087
 Sum of Mulliken charges =  -0.00000
 Mulliken charges with hydrogens summed into heavy atoms:
               1
     1  C    0.375922
     3  O   -0.119050
     5  C    0.112416
     7  O   -0.400920
     8  C    0.141823
    10  O   -0.136597
    12  C    0.168885
    14  O   -0.165688
    16  C    0.123413
    18  O   -0.401975
    19  C    0.255451
    22  O   -0.150512
    24  C    0.387628
    26  C    0.094988
    28  O   -0.447582
    29  C    0.174416
    31  O   -0.150931
    33  C    0.128567
    35  O   -0.157649
    37  C    0.203859
    39  O   -0.147040
    41  C    0.268968
    44  O   -0.158392
 Electronic spatial extent (au):  <R**2>=           8732.0756
 Charge=              0.0000 electrons
 Dipole moment (field-independent basis, Debye):
    X=              2.5686    Y=             -1.3334    Z=             -0.9837  Tot=              3.0567
 Quadrupole moment (field-independent basis, Debye-Ang):
   XX=           -151.6221   YY=           -150.3489   ZZ=           -134.3494
   XY=             -8.0428   XZ=             -8.5400   YZ=              0.7465
 Traceless Quadrupole moment (field-independent basis, Debye-Ang):
   XX=             -6.1820   YY=             -4.9088   ZZ=             11.0907
   XY=             -8.0428   XZ=             -8.5400   YZ=              0.7465
 Octapole moment (field-independent basis, Debye-Ang**2):
  XXX=            102.7388  YYY=             10.2437  ZZZ=             -5.0976  XYY=             25.5781
  XXY=            -20.1867  XXZ=             24.7412  XZZ=            -19.5778  YZZ=            -10.1104
  YYZ=            -35.4945  XYZ=            -29.9025
 Hexadecapole moment (field-independent basis, Debye-Ang**3):
 XXXX=          -7876.3895 YYYY=          -2915.5708 ZZZZ=           -549.4771 XXXY=            -25.7488
 XXXZ=           -213.4442 YYYX=           -241.3774 YYYZ=              9.7033 ZZZX=            -39.6489
 ZZZY=             -4.4385 XXYY=          -1711.3410 XXZZ=          -1304.6696 YYZZ=           -547.9547
 XXYZ=             54.6875 YYXZ=            -52.2547 ZZXY=            -30.1626
 N-N= 2.317514188432D+03 E-N=-7.681869593921D+03  KE= 1.294104489570D+03
 No NMR shielding tensors so no spin-rotation constants.
 Leave Link  601 at Thu Mar 16 18:55:12 2023, MaxMem=   262144000 cpu:               1.7 elap:               0.2
 (Enter /dragofs/sw/campus/0.2/software/gaussian/16.gaussian/gaussian/g16_legacy/l9999.exe)
 1\1\GINC-DRAGO31070245\FOpt\RM062X\6-311G(d,p)\C12H22O11\JRAMOS\16-Mar
 -2023\0\\#p opt M062X/6-311g(d,p)\\Optimization 03-DIHEDRAL_PHI_PSI_14
 b/dimer14b_000_002.log\\0,1\C,-4.0805036607,0.1005221229,0.0390595952\
 H,-4.3186155705,-0.9650453052,0.1445307547\O,-5.2795672672,0.769083522
 ,-0.0401927178\H,-5.1072863806,1.6739220259,-0.3187940504\C,-2.1987682
 76,-0.1784781866,1.4708796723\H,-2.4392934203,-1.2465725144,1.58228188
 91\O,-3.379421847,0.5543711936,1.1921503992\C,-3.1800159722,0.32462167
 29,-1.1713272415\H,-2.9692460628,1.4056759569,-1.2327572157\O,-3.83939
 8396,-0.1314397918,-2.3219609532\H,-3.186165148,-0.1332699089,-3.02995
 8532\C,-1.8586986999,-0.4061834995,-0.985253807\H,-2.0667769896,-1.485
 4988908,-0.9463882882\O,-1.0723339228,-0.1075927007,-2.1225158429\H,-0
 .1891383067,-0.4693368267,-1.9705950174\C,-1.2015736957,-0.0107836779,
 0.3292305653\H,-0.8695831168,1.0338260126,0.2705099108\O,-0.082772214,
 -0.8628353402,0.5911680815\C,-1.6798705587,0.3528270549,2.7934326313\H
 ,-0.7670198515,-0.1762709851,3.0728564847\H,-1.4414208964,1.4187562034
 ,2.6674471749\O,-2.6226602829,0.1510586477,3.8151540284\H,-3.453131787
 1,0.5151072053,3.4901295367\C,1.153910297,-0.2517960211,0.475558062\H,
 1.1831673203,0.683929919,1.059190909\C,2.5900106783,0.7540871186,-1.12
 68024325\H,2.5981133621,1.6683852004,-0.5175491082\O,1.3766058766,0.03
 89236957,-0.8874379582\C,2.2295873574,-1.2073977196,0.9603104885\H,2.1
 543320792,-2.1303595198,0.3711841832\O,2.1222965297,-1.4628356281,2.34
 35036476\H,1.3135416308,-1.9614557636,2.4929892113\C,3.5873376531,-0.5
 656912278,0.7272615148\H,3.6553681391,0.333853597,1.3577003565\O,4.643
 0255573,-1.4521058334,1.0253552801\H,4.5248719323,-1.7444040641,1.9349
 26074\C,3.7558931281,-0.1387114241,-0.7243081009\H,3.7478926933,-1.041
 968551,-1.352358898\O,4.946858467,0.5892826611,-0.8968204519\H,5.65236
 93086,0.0682358786,-0.4988251113\C,2.5583575661,1.1434901462,-2.590366
 5232\H,3.4608795559,1.7053592143,-2.8293291299\H,2.5469019033,0.227928
 5327,-3.1984299476\O,1.4499212494,1.9670410654,-2.8636100611\H,0.65145
 00385,1.4876337331,-2.6133690622\\Version=EM64L-G16RevA.03\State=1-A\H
 F=-1297.8329403\RMSD=4.499e-09\RMSF=9.267e-06\Dipole=1.00874,-0.571647
 9,0.319266\Quadrupole=-4.7467269,8.5109079,-3.764181,-6.7578861,4.3211
 201,2.9472227\PG=C01 [X(C12H22O11)]\\@


 LENDING MONEY TO FRIENDS CAUSES THEM TO LOSE THEIR MEMORIES.

    --  PETER'S THEORY OF RECIPROCAL INHIBITION OF FISCAL RECALL
 Job cpu time:       0 days  7 hours 25 minutes 59.7 seconds.
 Elapsed time:       0 days  0 hours 55 minutes 56.0 seconds.
 File lengths (MBytes):  RWF=    189 Int=      0 D2E=      0 Chk=     24 Scr=      1
 Normal termination of Gaussian 16 at Thu Mar 16 18:55:12 2023.
