 Entering Gaussian System, Link 0=/dragofs/sw/campus/0.2/software/gaussian/16.gaussian/gaussian/g16_legacy/g16
 Input=dimer14b_000_006_opt.com
 Output=dimer14b_000_006_opt.log
 Initial command:
 /dragofs/sw/campus/0.2/software/gaussian/16.gaussian/gaussian/g16_legacy/l1.exe "/tmp/jramos/82063/Gau-2465965.inp" -scrdir="/tmp/jramos/82063/"
 Entering Link 1 = /dragofs/sw/campus/0.2/software/gaussian/16.gaussian/gaussian/g16_legacy/l1.exe PID=   2465966.
  
 Copyright (c) 1988,1990,1992,1993,1995,1998,2003,2009,2016,
            Gaussian, Inc.  All Rights Reserved.
  
 This is part of the Gaussian(R) 16 program.  It is based on
 the Gaussian(R) 09 system (copyright 2009, Gaussian, Inc.),
 the Gaussian(R) 03 system (copyright 2003, Gaussian, Inc.),
 the Gaussian(R) 98 system (copyright 1998, Gaussian, Inc.),
 the Gaussian(R) 94 system (copyright 1995, Gaussian, Inc.),
 the Gaussian 92(TM) system (copyright 1992, Gaussian, Inc.),
 the Gaussian 90(TM) system (copyright 1990, Gaussian, Inc.),
 the Gaussian 88(TM) system (copyright 1988, Gaussian, Inc.),
 the Gaussian 86(TM) system (copyright 1986, Carnegie Mellon
 University), and the Gaussian 82(TM) system (copyright 1983,
 Carnegie Mellon University). Gaussian is a federally registered
 trademark of Gaussian, Inc.
  
 This software contains proprietary and confidential information,
 including trade secrets, belonging to Gaussian, Inc.
  
 This software is provided under written license and may be
 used, copied, transmitted, or stored only in accord with that
 written license.
  
 The following legend is applicable only to US Government
 contracts under FAR:
  
                    RESTRICTED RIGHTS LEGEND
  
 Use, reproduction and disclosure by the US Government is
 subject to restrictions as set forth in subparagraphs (a)
 and (c) of the Commercial Computer Software - Restricted
 Rights clause in FAR 52.227-19.
  
 Gaussian, Inc.
 340 Quinnipiac St., Bldg. 40, Wallingford CT 06492
  
  
 ---------------------------------------------------------------
 Warning -- This program may not be used in any manner that
 competes with the business of Gaussian, Inc. or will provide
 assistance to any competitor of Gaussian, Inc.  The licensee
 of this program is prohibited from giving any competitor of
 Gaussian, Inc. access to this program.  By using this program,
 the user acknowledges that Gaussian, Inc. is engaged in the
 business of creating and licensing software in the field of
 computational chemistry and represents and warrants to the
 licensee that it is not a competitor of Gaussian, Inc. and that
 it will not use this program in any manner prohibited above.
 ---------------------------------------------------------------
  

 Cite this work as:
 Gaussian 16, Revision A.03,
 M. J. Frisch, G. W. Trucks, H. B. Schlegel, G. E. Scuseria, 
 M. A. Robb, J. R. Cheeseman, G. Scalmani, V. Barone, 
 G. A. Petersson, H. Nakatsuji, X. Li, M. Caricato, A. V. Marenich, 
 J. Bloino, B. G. Janesko, R. Gomperts, B. Mennucci, H. P. Hratchian, 
 J. V. Ortiz, A. F. Izmaylov, J. L. Sonnenberg, D. Williams-Young, 
 F. Ding, F. Lipparini, F. Egidi, J. Goings, B. Peng, A. Petrone, 
 T. Henderson, D. Ranasinghe, V. G. Zakrzewski, J. Gao, N. Rega, 
 G. Zheng, W. Liang, M. Hada, M. Ehara, K. Toyota, R. Fukuda, 
 J. Hasegawa, M. Ishida, T. Nakajima, Y. Honda, O. Kitao, H. Nakai, 
 T. Vreven, K. Throssell, J. A. Montgomery, Jr., J. E. Peralta, 
 F. Ogliaro, M. J. Bearpark, J. J. Heyd, E. N. Brothers, K. N. Kudin, 
 V. N. Staroverov, T. A. Keith, R. Kobayashi, J. Normand, 
 K. Raghavachari, A. P. Rendell, J. C. Burant, S. S. Iyengar, 
 J. Tomasi, M. Cossi, J. M. Millam, M. Klene, C. Adamo, R. Cammi, 
 J. W. Ochterski, R. L. Martin, K. Morokuma, O. Farkas, 
 J. B. Foresman, and D. J. Fox, Gaussian, Inc., Wallingford CT, 2016.
 
 ******************************************
 Gaussian 16:  EM64L-G16RevA.03 25-Dec-2016
                16-Mar-2023 
 ******************************************
 %chk=dimer14b_000_006_opt.chk
 %mem=2000MB
 %nproc=8
 Will use up to    8 processors via shared memory.
 ------------------------
 #p opt M062X/6-311g(d,p)
 ------------------------
 1/18=20,19=15,26=3,38=1/1,3;
 2/9=110,12=2,17=6,18=5,40=1/2;
 3/5=4,6=6,7=101,11=2,25=1,30=1,71=1,74=-55/1,2,3;
 4//1;
 5/5=2,38=5/2;
 6/7=2,8=2,9=2,10=2,28=1/1;
 7//1,2,3,16;
 1/18=20,19=15,26=3/3(2);
 2/9=110/2;
 99//99;
 2/9=110/2;
 3/5=4,6=6,7=101,11=2,25=1,30=1,71=1,74=-55/1,2,3;
 4/5=5,16=3,69=1/1;
 5/5=2,38=5/2;
 7//1,2,3,16;
 1/18=20,19=15,26=3/3(-5);
 2/9=110/2;
 6/7=2,8=2,9=2,10=2,19=2,28=1/1;
 99/9=1/99;
 Leave Link    1 at Thu Mar 16 18:22:50 2023, MaxMem=   262144000 cpu:               0.3 elap:               0.1
 (Enter /dragofs/sw/campus/0.2/software/gaussian/16.gaussian/gaussian/g16_legacy/l101.exe)
 ---------------------------------------------------------
 Optimization 03-DIHEDRAL_PHI_PSI_14b/dimer14b_000_006.log
 ---------------------------------------------------------
 Symbolic Z-matrix:
 Charge =  0 Multiplicity = 1
 C                     3.52087   0.40748  -0.66185 
 H                     2.99072   0.72132  -1.56945 
 O                     4.82227   0.8348   -0.79718 
 H                     5.33903   0.46229  -0.07588 
 C                     1.55421   0.80493   0.63194 
 H                     1.03623   1.1003   -0.28862 
 O                     2.9511    1.03673   0.47874 
 C                     3.39658  -1.10286  -0.47771 
 H                     3.96043  -1.37929   0.42878 
 O                     3.90831  -1.74732  -1.61361 
 H                     3.66203  -2.67522  -1.53653 
 C                     1.9388   -1.47321  -0.26016 
 H                     1.40274  -1.21738  -1.18646 
 O                     1.89301  -2.86856  -0.04308 
 H                     0.97298  -3.11158   0.10011 
 C                     1.35074  -0.68996   0.90619 
 H                     1.89524  -0.9562    1.81644 
 O                     0.01084  -1.11742   1.17164 
 C                     1.10136   1.71857   1.75112 
 H                     0.0957    1.45979   2.07026 
 H                     1.79411   1.61268   2.59383 
 O                     1.06121   3.06209   1.29615 
 H                     1.94081   3.27133   0.96225 
 C                    -0.98359  -0.75848   0.26668 
 H                    -0.716    -1.07319  -0.75756 
 C                    -2.10984   1.0865   -0.6803 
 H                    -1.79474   0.75794  -1.68159 
 O                    -1.17026   0.63099   0.28852 
 C                    -2.27032  -1.44911   0.68306 
 H                    -2.52374  -1.11556   1.69686 
 O                    -2.15514  -2.85689   0.61609 
 H                    -1.61315  -3.1387    1.3583 
 C                    -3.36607  -1.03087  -0.28053 
 H                    -3.10882  -1.40621  -1.28268 
 O                    -4.62935  -1.5208    0.11419 
 H                    -4.55503  -2.47751   0.18804 
 C                    -3.47388   0.48574  -0.3569 
 H                    -3.79935   0.85421   0.62751 
 O                    -4.37725   0.87012  -1.36531 
 H                    -5.18874   0.37366  -1.21591 
 C                    -2.07571   2.6034   -0.63086 
 H                    -2.78852   2.98639  -1.36282 
 H                    -2.39752   2.92739   0.36738 
 O                    -0.79625   3.0897   -0.95172 
 H                    -0.25109   3.10315  -0.15169 
 
 ITRead=  0  0  0  0  0  0  0  0  0  0  0  0  0  0  0  0  0  0  0  0
 ITRead=  0  0  0  0  0  0  0  0  0  0  0  0  0  0  0  0  0  0  0  0
 ITRead=  0  0  0  0  0
 MicOpt= -1 -1 -1 -1 -1 -1 -1 -1 -1 -1 -1 -1 -1 -1 -1 -1 -1 -1 -1 -1
 MicOpt= -1 -1 -1 -1 -1 -1 -1 -1 -1 -1 -1 -1 -1 -1 -1 -1 -1 -1 -1 -1
 MicOpt= -1 -1 -1 -1 -1
 NAtoms=     45 NQM=       45 NQMF=       0 NMMI=      0 NMMIF=      0
                NMic=       0 NMicF=      0.
                    Isotopes and Nuclear Properties:
 (Nuclear quadrupole moments (NQMom) in fm**2, nuclear magnetic moments (NMagM)
  in nuclear magnetons)

  Atom         1           2           3           4           5           6           7           8           9          10
 IAtWgt=          12           1          16           1          12           1          16          12           1          16
 AtmWgt=  12.0000000   1.0078250  15.9949146   1.0078250  12.0000000   1.0078250  15.9949146  12.0000000   1.0078250  15.9949146
 NucSpn=           0           1           0           1           0           1           0           0           1           0
 AtZEff=  -0.0000000  -0.0000000  -0.0000000  -0.0000000  -0.0000000  -0.0000000  -0.0000000  -0.0000000  -0.0000000  -0.0000000
 NQMom=    0.0000000   0.0000000   0.0000000   0.0000000   0.0000000   0.0000000   0.0000000   0.0000000   0.0000000   0.0000000
 NMagM=    0.0000000   2.7928460   0.0000000   2.7928460   0.0000000   2.7928460   0.0000000   0.0000000   2.7928460   0.0000000
 AtZNuc=   6.0000000   1.0000000   8.0000000   1.0000000   6.0000000   1.0000000   8.0000000   6.0000000   1.0000000   8.0000000

  Atom        11          12          13          14          15          16          17          18          19          20
 IAtWgt=           1          12           1          16           1          12           1          16          12           1
 AtmWgt=   1.0078250  12.0000000   1.0078250  15.9949146   1.0078250  12.0000000   1.0078250  15.9949146  12.0000000   1.0078250
 NucSpn=           1           0           1           0           1           0           1           0           0           1
 AtZEff=  -0.0000000  -0.0000000  -0.0000000  -0.0000000  -0.0000000  -0.0000000  -0.0000000  -0.0000000  -0.0000000  -0.0000000
 NQMom=    0.0000000   0.0000000   0.0000000   0.0000000   0.0000000   0.0000000   0.0000000   0.0000000   0.0000000   0.0000000
 NMagM=    2.7928460   0.0000000   2.7928460   0.0000000   2.7928460   0.0000000   2.7928460   0.0000000   0.0000000   2.7928460
 AtZNuc=   1.0000000   6.0000000   1.0000000   8.0000000   1.0000000   6.0000000   1.0000000   8.0000000   6.0000000   1.0000000

  Atom        21          22          23          24          25          26          27          28          29          30
 IAtWgt=           1          16           1          12           1          12           1          16          12           1
 AtmWgt=   1.0078250  15.9949146   1.0078250  12.0000000   1.0078250  12.0000000   1.0078250  15.9949146  12.0000000   1.0078250
 NucSpn=           1           0           1           0           1           0           1           0           0           1
 AtZEff=  -0.0000000  -0.0000000  -0.0000000  -0.0000000  -0.0000000  -0.0000000  -0.0000000  -0.0000000  -0.0000000  -0.0000000
 NQMom=    0.0000000   0.0000000   0.0000000   0.0000000   0.0000000   0.0000000   0.0000000   0.0000000   0.0000000   0.0000000
 NMagM=    2.7928460   0.0000000   2.7928460   0.0000000   2.7928460   0.0000000   2.7928460   0.0000000   0.0000000   2.7928460
 AtZNuc=   1.0000000   8.0000000   1.0000000   6.0000000   1.0000000   6.0000000   1.0000000   8.0000000   6.0000000   1.0000000

  Atom        31          32          33          34          35          36          37          38          39          40
 IAtWgt=          16           1          12           1          16           1          12           1          16           1
 AtmWgt=  15.9949146   1.0078250  12.0000000   1.0078250  15.9949146   1.0078250  12.0000000   1.0078250  15.9949146   1.0078250
 NucSpn=           0           1           0           1           0           1           0           1           0           1
 AtZEff=  -0.0000000  -0.0000000  -0.0000000  -0.0000000  -0.0000000  -0.0000000  -0.0000000  -0.0000000  -0.0000000  -0.0000000
 NQMom=    0.0000000   0.0000000   0.0000000   0.0000000   0.0000000   0.0000000   0.0000000   0.0000000   0.0000000   0.0000000
 NMagM=    0.0000000   2.7928460   0.0000000   2.7928460   0.0000000   2.7928460   0.0000000   2.7928460   0.0000000   2.7928460
 AtZNuc=   8.0000000   1.0000000   6.0000000   1.0000000   8.0000000   1.0000000   6.0000000   1.0000000   8.0000000   1.0000000

  Atom        41          42          43          44          45
 IAtWgt=          12           1           1          16           1
 AtmWgt=  12.0000000   1.0078250   1.0078250  15.9949146   1.0078250
 NucSpn=           0           1           1           0           1
 AtZEff=  -0.0000000  -0.0000000  -0.0000000  -0.0000000  -0.0000000
 NQMom=    0.0000000   0.0000000   0.0000000   0.0000000   0.0000000
 NMagM=    0.0000000   2.7928460   2.7928460   0.0000000   2.7928460
 AtZNuc=   6.0000000   1.0000000   1.0000000   8.0000000   1.0000000
 Leave Link  101 at Thu Mar 16 18:22:50 2023, MaxMem=   262144000 cpu:               1.1 elap:               0.2
 (Enter /dragofs/sw/campus/0.2/software/gaussian/16.gaussian/gaussian/g16_legacy/l103.exe)

 GradGradGradGradGradGradGradGradGradGradGradGradGradGradGradGradGradGrad
 Berny optimization.
 Initialization pass.
                           ----------------------------
                           !    Initial Parameters    !
                           ! (Angstroms and Degrees)  !
 --------------------------                            --------------------------
 ! Name  Definition              Value          Derivative Info.                !
 --------------------------------------------------------------------------------
 ! R1    R(1,2)                  1.0969         estimate D2E/DX2                !
 ! R2    R(1,3)                  1.3764         estimate D2E/DX2                !
 ! R3    R(1,7)                  1.4218         estimate D2E/DX2                !
 ! R4    R(1,8)                  1.5266         estimate D2E/DX2                !
 ! R5    R(3,4)                  0.9623         estimate D2E/DX2                !
 ! R6    R(5,6)                  1.0968         estimate D2E/DX2                !
 ! R7    R(5,7)                  1.4243         estimate D2E/DX2                !
 ! R8    R(5,16)                 1.5334         estimate D2E/DX2                !
 ! R9    R(5,19)                 1.5141         estimate D2E/DX2                !
 ! R10   R(8,9)                  1.1027         estimate D2E/DX2                !
 ! R11   R(8,10)                 1.4027         estimate D2E/DX2                !
 ! R12   R(8,12)                 1.5197         estimate D2E/DX2                !
 ! R13   R(10,11)                0.9631         estimate D2E/DX2                !
 ! R14   R(12,13)                1.1004         estimate D2E/DX2                !
 ! R15   R(12,14)                1.4129         estimate D2E/DX2                !
 ! R16   R(12,16)                1.5231         estimate D2E/DX2                !
 ! R17   R(14,15)                0.9623         estimate D2E/DX2                !
 ! R18   R(16,17)                1.0936         estimate D2E/DX2                !
 ! R19   R(16,18)                1.4313         estimate D2E/DX2                !
 ! R20   R(18,24)                1.3916         estimate D2E/DX2                !
 ! R21   R(19,20)                1.0864         estimate D2E/DX2                !
 ! R22   R(19,21)                1.096          estimate D2E/DX2                !
 ! R23   R(19,22)                1.419          estimate D2E/DX2                !
 ! R24   R(22,23)                0.9638         estimate D2E/DX2                !
 ! R25   R(24,25)                1.1044         estimate D2E/DX2                !
 ! R26   R(24,28)                1.4021         estimate D2E/DX2                !
 ! R27   R(24,29)                1.5186         estimate D2E/DX2                !
 ! R28   R(26,27)                1.0999         estimate D2E/DX2                !
 ! R29   R(26,28)                1.4244         estimate D2E/DX2                !
 ! R30   R(26,37)                1.5252         estimate D2E/DX2                !
 ! R31   R(26,41)                1.5181         estimate D2E/DX2                !
 ! R32   R(29,30)                1.0969         estimate D2E/DX2                !
 ! R33   R(29,31)                1.4141         estimate D2E/DX2                !
 ! R34   R(29,33)                1.5179         estimate D2E/DX2                !
 ! R35   R(31,32)                0.9613         estimate D2E/DX2                !
 ! R36   R(33,34)                1.1006         estimate D2E/DX2                !
 ! R37   R(33,35)                1.4113         estimate D2E/DX2                !
 ! R38   R(33,37)                1.5224         estimate D2E/DX2                !
 ! R39   R(35,36)                0.9624         estimate D2E/DX2                !
 ! R40   R(37,38)                1.1003         estimate D2E/DX2                !
 ! R41   R(37,39)                1.4074         estimate D2E/DX2                !
 ! R42   R(39,40)                0.963          estimate D2E/DX2                !
 ! R43   R(41,42)                1.0911         estimate D2E/DX2                !
 ! R44   R(41,43)                1.0977         estimate D2E/DX2                !
 ! R45   R(41,44)                1.4059         estimate D2E/DX2                !
 ! R46   R(44,45)                0.9682         estimate D2E/DX2                !
 ! A1    A(2,1,3)              106.6654         estimate D2E/DX2                !
 ! A2    A(2,1,7)              110.0871         estimate D2E/DX2                !
 ! A3    A(2,1,8)              110.091          estimate D2E/DX2                !
 ! A4    A(3,1,7)              108.6851         estimate D2E/DX2                !
 ! A5    A(3,1,8)              113.3272         estimate D2E/DX2                !
 ! A6    A(7,1,8)              107.967          estimate D2E/DX2                !
 ! A7    A(1,3,4)              108.2914         estimate D2E/DX2                !
 ! A8    A(6,5,7)              109.2129         estimate D2E/DX2                !
 ! A9    A(6,5,16)             110.4865         estimate D2E/DX2                !
 ! A10   A(6,5,19)             108.4604         estimate D2E/DX2                !
 ! A11   A(7,5,16)             107.9419         estimate D2E/DX2                !
 ! A12   A(7,5,19)             105.9411         estimate D2E/DX2                !
 ! A13   A(16,5,19)            114.6068         estimate D2E/DX2                !
 ! A14   A(1,7,5)              114.0348         estimate D2E/DX2                !
 ! A15   A(1,8,9)              107.7902         estimate D2E/DX2                !
 ! A16   A(1,8,10)             109.0977         estimate D2E/DX2                !
 ! A17   A(1,8,12)             109.6615         estimate D2E/DX2                !
 ! A18   A(9,8,10)             111.3445         estimate D2E/DX2                !
 ! A19   A(9,8,12)             108.1622         estimate D2E/DX2                !
 ! A20   A(10,8,12)            110.7264         estimate D2E/DX2                !
 ! A21   A(8,10,11)            106.5324         estimate D2E/DX2                !
 ! A22   A(8,12,13)            106.8664         estimate D2E/DX2                !
 ! A23   A(8,12,14)            107.083          estimate D2E/DX2                !
 ! A24   A(8,12,16)            110.7729         estimate D2E/DX2                !
 ! A25   A(13,12,14)           110.0695         estimate D2E/DX2                !
 ! A26   A(13,12,16)           109.6935         estimate D2E/DX2                !
 ! A27   A(14,12,16)           112.1917         estimate D2E/DX2                !
 ! A28   A(12,14,15)           107.6534         estimate D2E/DX2                !
 ! A29   A(5,16,12)            108.2491         estimate D2E/DX2                !
 ! A30   A(5,16,17)            108.6716         estimate D2E/DX2                !
 ! A31   A(5,16,18)            116.6508         estimate D2E/DX2                !
 ! A32   A(12,16,17)           108.6613         estimate D2E/DX2                !
 ! A33   A(12,16,18)           110.4812         estimate D2E/DX2                !
 ! A34   A(17,16,18)           103.8301         estimate D2E/DX2                !
 ! A35   A(16,18,24)           118.1202         estimate D2E/DX2                !
 ! A36   A(5,19,20)            110.5054         estimate D2E/DX2                !
 ! A37   A(5,19,21)            108.7237         estimate D2E/DX2                !
 ! A38   A(5,19,22)            110.047          estimate D2E/DX2                !
 ! A39   A(20,19,21)           109.6464         estimate D2E/DX2                !
 ! A40   A(20,19,22)           107.069          estimate D2E/DX2                !
 ! A41   A(21,19,22)           110.8467         estimate D2E/DX2                !
 ! A42   A(19,22,23)           106.9052         estimate D2E/DX2                !
 ! A43   A(18,24,25)           110.8816         estimate D2E/DX2                !
 ! A44   A(18,24,28)           109.9133         estimate D2E/DX2                !
 ! A45   A(18,24,29)           108.0516         estimate D2E/DX2                !
 ! A46   A(25,24,28)           109.2142         estimate D2E/DX2                !
 ! A47   A(25,24,29)           109.269          estimate D2E/DX2                !
 ! A48   A(28,24,29)           109.4878         estimate D2E/DX2                !
 ! A49   A(27,26,28)           109.5529         estimate D2E/DX2                !
 ! A50   A(27,26,37)           109.3649         estimate D2E/DX2                !
 ! A51   A(27,26,41)           108.7651         estimate D2E/DX2                !
 ! A52   A(28,26,37)           108.6481         estimate D2E/DX2                !
 ! A53   A(28,26,41)           106.4127         estimate D2E/DX2                !
 ! A54   A(37,26,41)           114.0036         estimate D2E/DX2                !
 ! A55   A(24,28,26)           113.2114         estimate D2E/DX2                !
 ! A56   A(24,29,30)           108.1121         estimate D2E/DX2                !
 ! A57   A(24,29,31)           111.7624         estimate D2E/DX2                !
 ! A58   A(24,29,33)           108.1976         estimate D2E/DX2                !
 ! A59   A(30,29,31)           111.4269         estimate D2E/DX2                !
 ! A60   A(30,29,33)           109.6426         estimate D2E/DX2                !
 ! A61   A(31,29,33)           107.6404         estimate D2E/DX2                !
 ! A62   A(29,31,32)           107.5308         estimate D2E/DX2                !
 ! A63   A(29,33,34)           108.3801         estimate D2E/DX2                !
 ! A64   A(29,33,35)           111.8988         estimate D2E/DX2                !
 ! A65   A(29,33,37)           110.9441         estimate D2E/DX2                !
 ! A66   A(34,33,35)           110.2123         estimate D2E/DX2                !
 ! A67   A(34,33,37)           108.097          estimate D2E/DX2                !
 ! A68   A(35,33,37)           107.2463         estimate D2E/DX2                !
 ! A69   A(33,35,36)           107.3031         estimate D2E/DX2                !
 ! A70   A(26,37,33)           109.8593         estimate D2E/DX2                !
 ! A71   A(26,37,38)           108.8046         estimate D2E/DX2                !
 ! A72   A(26,37,39)           108.3341         estimate D2E/DX2                !
 ! A73   A(33,37,38)           108.0397         estimate D2E/DX2                !
 ! A74   A(33,37,39)           110.7004         estimate D2E/DX2                !
 ! A75   A(38,37,39)           111.0821         estimate D2E/DX2                !
 ! A76   A(37,39,40)           106.7943         estimate D2E/DX2                !
 ! A77   A(26,41,42)           108.3119         estimate D2E/DX2                !
 ! A78   A(26,41,43)           108.5384         estimate D2E/DX2                !
 ! A79   A(26,41,44)           111.0187         estimate D2E/DX2                !
 ! A80   A(42,41,43)           108.3559         estimate D2E/DX2                !
 ! A81   A(42,41,44)           108.664          estimate D2E/DX2                !
 ! A82   A(43,41,44)           111.8548         estimate D2E/DX2                !
 ! A83   A(41,44,45)           109.1867         estimate D2E/DX2                !
 ! D1    D(2,1,3,4)           -171.8579         estimate D2E/DX2                !
 ! D2    D(7,1,3,4)             69.4767         estimate D2E/DX2                !
 ! D3    D(8,1,3,4)            -50.5536         estimate D2E/DX2                !
 ! D4    D(2,1,7,5)             56.1059         estimate D2E/DX2                !
 ! D5    D(3,1,7,5)            172.5945         estimate D2E/DX2                !
 ! D6    D(8,1,7,5)            -64.0994         estimate D2E/DX2                !
 ! D7    D(2,1,8,9)            178.7051         estimate D2E/DX2                !
 ! D8    D(2,1,8,10)            57.6664         estimate D2E/DX2                !
 ! D9    D(2,1,8,12)           -63.7608         estimate D2E/DX2                !
 ! D10   D(3,1,8,9)             59.3463         estimate D2E/DX2                !
 ! D11   D(3,1,8,10)           -61.6924         estimate D2E/DX2                !
 ! D12   D(3,1,8,12)           176.8804         estimate D2E/DX2                !
 ! D13   D(7,1,8,9)            -61.0921         estimate D2E/DX2                !
 ! D14   D(7,1,8,10)           177.8692         estimate D2E/DX2                !
 ! D15   D(7,1,8,12)            56.4421         estimate D2E/DX2                !
 ! D16   D(6,5,7,1)            -54.6564         estimate D2E/DX2                !
 ! D17   D(16,5,7,1)            65.5036         estimate D2E/DX2                !
 ! D18   D(19,5,7,1)          -171.2895         estimate D2E/DX2                !
 ! D19   D(6,5,16,12)           60.9854         estimate D2E/DX2                !
 ! D20   D(6,5,16,17)          178.8291         estimate D2E/DX2                !
 ! D21   D(6,5,16,18)          -64.3043         estimate D2E/DX2                !
 ! D22   D(7,5,16,12)          -58.3704         estimate D2E/DX2                !
 ! D23   D(7,5,16,17)           59.4733         estimate D2E/DX2                !
 ! D24   D(7,5,16,18)          176.3399         estimate D2E/DX2                !
 ! D25   D(19,5,16,12)        -176.1334         estimate D2E/DX2                !
 ! D26   D(19,5,16,17)         -58.2897         estimate D2E/DX2                !
 ! D27   D(19,5,16,18)          58.5769         estimate D2E/DX2                !
 ! D28   D(6,5,19,20)           74.5024         estimate D2E/DX2                !
 ! D29   D(6,5,19,21)         -165.1145         estimate D2E/DX2                !
 ! D30   D(6,5,19,22)          -43.5358         estimate D2E/DX2                !
 ! D31   D(7,5,19,20)         -168.3581         estimate D2E/DX2                !
 ! D32   D(7,5,19,21)          -47.975          estimate D2E/DX2                !
 ! D33   D(7,5,19,22)           73.6037         estimate D2E/DX2                !
 ! D34   D(16,5,19,20)         -49.4644         estimate D2E/DX2                !
 ! D35   D(16,5,19,21)          70.9187         estimate D2E/DX2                !
 ! D36   D(16,5,19,22)        -167.5027         estimate D2E/DX2                !
 ! D37   D(1,8,10,11)         -169.4384         estimate D2E/DX2                !
 ! D38   D(9,8,10,11)           71.7166         estimate D2E/DX2                !
 ! D39   D(12,8,10,11)         -48.6605         estimate D2E/DX2                !
 ! D40   D(1,8,12,13)           64.391          estimate D2E/DX2                !
 ! D41   D(1,8,12,14)         -177.6845         estimate D2E/DX2                !
 ! D42   D(1,8,12,16)          -55.0564         estimate D2E/DX2                !
 ! D43   D(9,8,12,13)         -178.3075         estimate D2E/DX2                !
 ! D44   D(9,8,12,14)          -60.383          estimate D2E/DX2                !
 ! D45   D(9,8,12,16)           62.2452         estimate D2E/DX2                !
 ! D46   D(10,8,12,13)         -56.0518         estimate D2E/DX2                !
 ! D47   D(10,8,12,14)          61.8728         estimate D2E/DX2                !
 ! D48   D(10,8,12,16)        -175.4991         estimate D2E/DX2                !
 ! D49   D(8,12,14,15)         179.7251         estimate D2E/DX2                !
 ! D50   D(13,12,14,15)        -64.4622         estimate D2E/DX2                !
 ! D51   D(16,12,14,15)         57.9842         estimate D2E/DX2                !
 ! D52   D(8,12,16,5)           55.6115         estimate D2E/DX2                !
 ! D53   D(8,12,16,17)         -62.2389         estimate D2E/DX2                !
 ! D54   D(8,12,16,18)        -175.5347         estimate D2E/DX2                !
 ! D55   D(13,12,16,5)         -62.1221         estimate D2E/DX2                !
 ! D56   D(13,12,16,17)       -179.9725         estimate D2E/DX2                !
 ! D57   D(13,12,16,18)         66.7317         estimate D2E/DX2                !
 ! D58   D(14,12,16,5)         175.2186         estimate D2E/DX2                !
 ! D59   D(14,12,16,17)         57.3682         estimate D2E/DX2                !
 ! D60   D(14,12,16,18)        -55.9276         estimate D2E/DX2                !
 ! D61   D(5,16,18,24)          52.0879         estimate D2E/DX2                !
 ! D62   D(12,16,18,24)        -72.0696         estimate D2E/DX2                !
 ! D63   D(17,16,18,24)        171.5894         estimate D2E/DX2                !
 ! D64   D(16,18,24,25)         54.226          estimate D2E/DX2                !
 ! D65   D(16,18,24,28)        -66.6268         estimate D2E/DX2                !
 ! D66   D(16,18,24,29)        173.95           estimate D2E/DX2                !
 ! D67   D(5,19,22,23)         -56.3758         estimate D2E/DX2                !
 ! D68   D(20,19,22,23)       -176.5156         estimate D2E/DX2                !
 ! D69   D(21,19,22,23)         63.9289         estimate D2E/DX2                !
 ! D70   D(18,24,28,26)        175.8986         estimate D2E/DX2                !
 ! D71   D(25,24,28,26)         54.047          estimate D2E/DX2                !
 ! D72   D(29,24,28,26)        -65.5595         estimate D2E/DX2                !
 ! D73   D(18,24,29,30)         59.8543         estimate D2E/DX2                !
 ! D74   D(18,24,29,31)        -63.1314         estimate D2E/DX2                !
 ! D75   D(18,24,29,33)        178.528          estimate D2E/DX2                !
 ! D76   D(25,24,29,30)       -179.4103         estimate D2E/DX2                !
 ! D77   D(25,24,29,31)         57.604          estimate D2E/DX2                !
 ! D78   D(25,24,29,33)        -60.7366         estimate D2E/DX2                !
 ! D79   D(28,24,29,30)        -59.8375         estimate D2E/DX2                !
 ! D80   D(28,24,29,31)        177.1767         estimate D2E/DX2                !
 ! D81   D(28,24,29,33)         58.8362         estimate D2E/DX2                !
 ! D82   D(27,26,28,24)        -56.3222         estimate D2E/DX2                !
 ! D83   D(37,26,28,24)         63.0991         estimate D2E/DX2                !
 ! D84   D(41,26,28,24)       -173.741          estimate D2E/DX2                !
 ! D85   D(27,26,37,33)         64.2956         estimate D2E/DX2                !
 ! D86   D(27,26,37,38)       -177.6172         estimate D2E/DX2                !
 ! D87   D(27,26,37,39)        -56.7435         estimate D2E/DX2                !
 ! D88   D(28,26,37,33)        -55.2432         estimate D2E/DX2                !
 ! D89   D(28,26,37,38)         62.844          estimate D2E/DX2                !
 ! D90   D(28,26,37,39)       -176.2823         estimate D2E/DX2                !
 ! D91   D(41,26,37,33)       -173.7146         estimate D2E/DX2                !
 ! D92   D(41,26,37,38)        -55.6274         estimate D2E/DX2                !
 ! D93   D(41,26,37,39)         65.2464         estimate D2E/DX2                !
 ! D94   D(27,26,41,42)         62.1626         estimate D2E/DX2                !
 ! D95   D(27,26,41,43)        179.6047         estimate D2E/DX2                !
 ! D96   D(27,26,41,44)        -57.0649         estimate D2E/DX2                !
 ! D97   D(28,26,41,42)       -179.8968         estimate D2E/DX2                !
 ! D98   D(28,26,41,43)        -62.4546         estimate D2E/DX2                !
 ! D99   D(28,26,41,44)         60.8758         estimate D2E/DX2                !
 ! D100  D(37,26,41,42)        -60.157          estimate D2E/DX2                !
 ! D101  D(37,26,41,43)         57.2851         estimate D2E/DX2                !
 ! D102  D(37,26,41,44)       -179.3845         estimate D2E/DX2                !
 ! D103  D(24,29,31,32)         73.981          estimate D2E/DX2                !
 ! D104  D(30,29,31,32)        -47.1002         estimate D2E/DX2                !
 ! D105  D(33,29,31,32)       -167.3467         estimate D2E/DX2                !
 ! D106  D(24,29,33,34)         64.2901         estimate D2E/DX2                !
 ! D107  D(24,29,33,35)       -173.9777         estimate D2E/DX2                !
 ! D108  D(24,29,33,37)        -54.2423         estimate D2E/DX2                !
 ! D109  D(30,29,33,34)       -178.0128         estimate D2E/DX2                !
 ! D110  D(30,29,33,35)        -56.2806         estimate D2E/DX2                !
 ! D111  D(30,29,33,37)         63.4548         estimate D2E/DX2                !
 ! D112  D(31,29,33,34)        -56.6453         estimate D2E/DX2                !
 ! D113  D(31,29,33,35)         65.0869         estimate D2E/DX2                !
 ! D114  D(31,29,33,37)       -175.1777         estimate D2E/DX2                !
 ! D115  D(29,33,35,36)        -56.473          estimate D2E/DX2                !
 ! D116  D(34,33,35,36)         64.1999         estimate D2E/DX2                !
 ! D117  D(37,33,35,36)       -178.3556         estimate D2E/DX2                !
 ! D118  D(29,33,37,26)         53.3849         estimate D2E/DX2                !
 ! D119  D(29,33,37,38)        -65.175          estimate D2E/DX2                !
 ! D120  D(29,33,37,39)        172.9897         estimate D2E/DX2                !
 ! D121  D(34,33,37,26)        -65.3185         estimate D2E/DX2                !
 ! D122  D(34,33,37,38)        176.1216         estimate D2E/DX2                !
 ! D123  D(34,33,37,39)         54.2863         estimate D2E/DX2                !
 ! D124  D(35,33,37,26)        175.8627         estimate D2E/DX2                !
 ! D125  D(35,33,37,38)         57.3028         estimate D2E/DX2                !
 ! D126  D(35,33,37,39)        -64.5325         estimate D2E/DX2                !
 ! D127  D(26,37,39,40)        171.4954         estimate D2E/DX2                !
 ! D128  D(33,37,39,40)         50.9782         estimate D2E/DX2                !
 ! D129  D(38,37,39,40)        -69.053          estimate D2E/DX2                !
 ! D130  D(26,41,44,45)        -85.809          estimate D2E/DX2                !
 ! D131  D(42,41,44,45)        155.1748         estimate D2E/DX2                !
 ! D132  D(43,41,44,45)         35.5963         estimate D2E/DX2                !
 --------------------------------------------------------------------------------
 Trust Radius=3.00D-01 FncErr=1.00D-07 GrdErr=1.00D-06 EigMax=2.50D+02 EigMin=1.00D-04
 Number of steps in this run=    270 maximum allowed number of steps=    270.
 GradGradGradGradGradGradGradGradGradGradGradGradGradGradGradGradGradGrad

 Leave Link  103 at Thu Mar 16 18:22:50 2023, MaxMem=   262144000 cpu:               0.1 elap:               0.0
 (Enter /dragofs/sw/campus/0.2/software/gaussian/16.gaussian/gaussian/g16_legacy/l202.exe)
                          Input orientation:                          
 ---------------------------------------------------------------------
 Center     Atomic      Atomic             Coordinates (Angstroms)
 Number     Number       Type             X           Y           Z
 ---------------------------------------------------------------------
      1          6           0        3.520865    0.407482   -0.661852
      2          1           0        2.990723    0.721317   -1.569445
      3          8           0        4.822271    0.834798   -0.797181
      4          1           0        5.339033    0.462287   -0.075875
      5          6           0        1.554211    0.804928    0.631941
      6          1           0        1.036230    1.100301   -0.288617
      7          8           0        2.951095    1.036735    0.478743
      8          6           0        3.396581   -1.102858   -0.477709
      9          1           0        3.960431   -1.379288    0.428775
     10          8           0        3.908306   -1.747319   -1.613608
     11          1           0        3.662028   -2.675222   -1.536529
     12          6           0        1.938804   -1.473213   -0.260163
     13          1           0        1.402743   -1.217383   -1.186456
     14          8           0        1.893012   -2.868559   -0.043078
     15          1           0        0.972980   -3.111580    0.100107
     16          6           0        1.350739   -0.689961    0.906194
     17          1           0        1.895241   -0.956201    1.816444
     18          8           0        0.010836   -1.117420    1.171638
     19          6           0        1.101359    1.718565    1.751115
     20          1           0        0.095699    1.459793    2.070257
     21          1           0        1.794110    1.612679    2.593834
     22          8           0        1.061209    3.062088    1.296145
     23          1           0        1.940807    3.271326    0.962251
     24          6           0       -0.983593   -0.758478    0.266676
     25          1           0       -0.715996   -1.073194   -0.757564
     26          6           0       -2.109842    1.086503   -0.680303
     27          1           0       -1.794741    0.757940   -1.681594
     28          8           0       -1.170261    0.630991    0.288524
     29          6           0       -2.270324   -1.449106    0.683062
     30          1           0       -2.523735   -1.115557    1.696858
     31          8           0       -2.155135   -2.856888    0.616087
     32          1           0       -1.613151   -3.138697    1.358296
     33          6           0       -3.366072   -1.030868   -0.280534
     34          1           0       -3.108817   -1.406214   -1.282675
     35          8           0       -4.629350   -1.520797    0.114185
     36          1           0       -4.555028   -2.477508    0.188039
     37          6           0       -3.473883    0.485744   -0.356896
     38          1           0       -3.799349    0.854212    0.627508
     39          8           0       -4.377255    0.870120   -1.365309
     40          1           0       -5.188736    0.373659   -1.215907
     41          6           0       -2.075706    2.603397   -0.630858
     42          1           0       -2.788519    2.986387   -1.362824
     43          1           0       -2.397518    2.927386    0.367376
     44          8           0       -0.796252    3.089702   -0.951723
     45          1           0       -0.251085    3.103145   -0.151686
 ---------------------------------------------------------------------
                    Distance matrix (angstroms):
                    1          2          3          4          5
     1  C    0.000000
     2  H    1.096936   0.000000
     3  O    1.376434   1.990939   0.000000
     4  H    1.911049   2.795068   0.962336   0.000000
     5  C    2.387382   2.629954   3.567001   3.865654   0.000000
     6  H    2.606283   2.367317   3.829260   4.355047   1.096803
     7  O    1.421814   2.072712   2.273777   2.517904   1.424250
     8  C    1.526592   2.164307   2.426760   2.526711   2.874943
     9  H    2.138979   3.057083   2.673558   2.355125   3.256067
    10  O    2.387282   2.634022   2.858184   3.048600   4.134999
    11  H    3.207499   3.462400   3.770019   3.845753   4.610488
    12  C    2.490238   2.763461   3.732249   3.916846   2.476628
    13  H    2.720632   2.535137   4.007013   4.421432   2.723830
    14  O    3.710152   4.052404   4.781640   4.792773   3.750326
    15  H    4.410907   4.642175   5.585344   5.644990   3.994961
    16  C    2.893544   3.287863   4.156671   4.265985   1.533398
    17  H    3.262551   3.934259   4.313493   4.177641   2.149633
    18  O    4.243503   4.446821   5.553135   5.695739   2.523629
    19  C    3.659967   3.948458   4.595655   4.782678   1.514053
    20  H    4.505945   4.708921   5.563569   5.752691   2.150548
    21  H    3.877328   4.422590   4.612357   4.584455   2.135190
    22  O    4.114680   4.172989   4.846486   5.190490   2.403953
    23  H    3.651835   3.743575   4.163545   4.529497   2.518269
    24  C    4.744657   4.621290   6.113786   6.448504   3.003016
    25  H    4.489160   4.197521   5.857850   6.283771   3.257592
    26  C    5.671532   5.190347   6.937666   7.499381   3.902122
    27  H    5.423870   4.786918   6.676297   7.318229   4.070643
    28  O    4.791642   4.557850   6.093499   6.521668   2.751534
    29  C    6.228449   6.120714   7.596857   7.882368   4.439634
    30  H    6.664859   6.667240   7.999245   8.213117   4.631625
    31  O    6.671298   6.637767   8.019356   8.225466   5.212331
    32  H    6.558544   6.683340   7.864439   7.959698   5.109985
    33  C    7.045861   6.718652   8.414071   8.834605   5.330285
    34  H    6.901275   6.466298   8.255907   8.735779   5.504429
    35  O    8.411094   8.119556   9.783279  10.165501   6.626726
    36  H    8.617745   8.382099   9.993786  10.324945   6.949405
    37  C    7.001830   6.581558   8.315158   8.817427   5.134336
    38  H    7.446311   7.137881   8.738561   9.173788   5.353789
    39  O    7.942870   7.372307   9.217120   9.809955   6.259037
    40  H    8.727272   8.194474  10.030366  10.589686   7.004846
    41  C    6.012039   5.485606   7.123040   7.737617   4.243283
    42  H    6.852039   6.210706   7.929276   8.607231   5.253299
    43  H    6.514329   6.136054   7.606607   8.131876   4.493438
    44  O    5.090759   4.509103   6.056094   6.731429   3.640448
    45  H    4.664169   4.265263   5.594730   6.182985   3.025717
                    6          7          8          9         10
     6  H    0.000000
     7  O    2.063877   0.000000
     8  C    3.234335   2.385606   0.000000
     9  H    3.900508   2.618859   1.102748   0.000000
    10  O    4.255979   3.611806   1.402661   2.075932   0.000000
    11  H    4.765152   4.283150   1.914129   2.372954   0.963119
    12  C    2.727347   2.805451   1.519738   2.137857   2.405387
    13  H    2.512390   3.201770   2.119157   3.029348   2.596370
    14  O    4.067704   4.079603   2.359518   2.591292   2.790189
    15  H    4.230254   4.611380   3.200418   3.468966   3.662535
    16  C    2.175207   2.392767   2.504225   2.741093   3.742801
    17  H    3.065678   2.622225   2.745664   2.523814   4.055065
    18  O    2.846412   3.710204   3.766142   4.027371   4.831629
    19  C    2.132369   2.346347   4.265692   4.418096   5.586830
    20  H    2.564785   3.296237   4.894398   5.068629   6.196160
    21  H    3.024142   2.478696   4.401867   4.281623   5.784633
    22  O    2.522043   2.888230   5.093849   5.374350   6.301033
    23  H    2.663884   2.499572   4.829726   5.098204   5.974353
    24  C    2.800553   4.330073   4.456302   4.985484   5.333287
    25  H    2.830952   4.407699   4.122195   4.834259   4.750939
    26  C    3.170391   5.192201   5.929169   6.645178   6.717121
    27  H    3.173640   5.221852   5.644620   6.491795   6.229421
    28  O    2.328507   4.145647   4.944633   5.512249   5.921681
    29  C    4.286833   5.786568   5.794919   6.236333   6.598416
    30  H    4.639557   6.007489   6.307063   6.612261   7.261505
    31  O    5.163588   6.422830   5.924066   6.294326   6.554998
    32  H    5.263140   6.248215   5.710777   5.918137   6.422977
    33  C    4.891034   6.690148   6.765910   7.369000   7.430139
    34  H    4.944915   6.767062   6.562027   7.273517   7.033199
    35  O    6.255494   8.008559   8.058572   8.596705   8.713676
    36  H    6.655080   8.293147   8.096973   8.589359   8.683728
    37  C    4.552303   6.502478   7.052767   7.704846   7.814257
    38  H    4.927745   6.754550   7.538769   8.077265   8.437921
    39  O    5.524316   7.558638   8.069263   8.820180   8.692707
    40  H    6.335462   8.340765   8.742580   9.459654   9.349486
    41  C    3.472833   5.380927   6.611029   7.308868   7.463439
    42  H    4.397721   6.335273   7.467316   8.235124   8.204775
    43  H    3.944514   5.674031   7.108349   7.679500   8.095714
    44  O    2.784855   4.505942   5.948285   6.671108   6.779951
    45  H    2.384809   3.862829   5.576936   6.177864   6.554750
                   11         12         13         14         15
    11  H    0.000000
    12  C    2.458340   0.000000
    13  H    2.711497   1.100377   0.000000
    14  O    2.323186   1.412874   2.067380   0.000000
    15  H    3.178044   1.935680   2.329790   0.962299   0.000000
    16  C    3.905152   1.523054   2.158718   2.437512   2.580061
    17  H    4.161610   2.140443   3.054207   2.667385   2.905518
    18  O    4.805426   2.427695   2.740074   2.843345   2.459791
    19  C    6.055658   3.864453   4.164126   4.988742   5.106134
    20  H    6.544154   4.174975   4.413821   5.141123   5.054559
    21  H    6.239801   4.205825   4.738461   5.200440   5.404771
    22  O    6.906883   4.874548   4.959216   6.136610   6.289075
    23  H    6.675922   4.899485   5.005493   6.221829   6.513177
    24  C    5.339218   3.054310   2.831393   3.580956   3.064802
    25  H    4.726561   2.730455   2.166517   3.246652   2.782671
    26  C    6.942491   4.808347   4.231115   5.663163   5.266567
    27  H    6.448564   4.575792   3.790906   5.425473   5.080150
    28  O    6.132934   3.794077   3.494625   4.662666   4.316923
    29  C    6.451569   4.313585   4.127979   4.458194   3.690891
    30  H    7.151993   4.885909   4.872484   5.060439   4.331367
    31  O    6.205332   4.409389   4.312266   4.101479   3.180599
    32  H    6.035092   4.243776   4.388944   3.785499   2.876082
    33  C    7.326364   5.323325   4.857682   5.575971   4.827175
    34  H    6.893415   5.150582   4.516535   5.356617   4.634806
    35  O    8.532555   6.578985   6.178177   6.662012   5.823821
    36  H    8.398407   6.586300   6.242771   6.464020   5.564948
    37  C    7.893318   5.757087   5.231663   6.336670   5.737960
    38  H    8.533001   6.255499   5.885893   6.834595   6.227422
    39  O    8.787994   6.826797   6.148011   7.419047   6.828352
    40  H    9.366669   7.424703   6.780846   7.876462   7.200384
    41  C    7.848927   5.733450   5.196793   6.785168   6.518417
    42  H    8.584495   6.591773   5.938810   7.611758   7.312609
    43  H    8.469485   6.209893   5.833994   7.222887   6.921040
    44  O    7.311129   5.364604   4.841659   6.599898   6.533944
    45  H    7.114757   5.074489   4.740555   6.345880   6.339128
                   16         17         18         19         20
    16  C    0.000000
    17  H    1.093582   0.000000
    18  O    1.431266   1.998186   0.000000
    19  C    2.564582   2.790858   3.093193   0.000000
    20  H    2.748019   3.023210   2.730704   1.086355   0.000000
    21  H    2.889093   2.685835   3.557548   1.096034   1.783846
    22  O    3.783353   4.136782   4.311273   1.419036   2.024551
    23  H    4.005386   4.313201   4.798929   1.933403   2.813139
    24  C    2.421319   3.275448   1.391648   3.561787   3.055896
    25  H    2.680737   3.668482   2.062053   4.170152   3.882196
    26  C    4.201002   5.142672   3.575505   4.077145   3.545326
    27  H    4.322859   5.365679   3.862385   4.592786   4.259430
    28  O    2.912365   3.775052   2.287318   2.912430   2.337550
    29  C    3.706506   4.345048   2.356356   4.747960   3.998008
    30  H    3.977164   4.423465   2.588418   4.601793   3.692328
    31  O    4.131693   4.632387   2.832987   5.729556   5.080807
    32  H    3.871091   4.157163   2.599565   5.578160   4.957133
    33  C    4.875741   5.664301   3.676928   5.625382   4.869648
    34  H    5.019144   5.903190   3.979860   6.057533   5.452070
    35  O    6.089255   6.766590   4.776217   6.783364   5.919140
    36  H    6.212017   6.824372   4.864609   7.214219   6.377644
    37  C    5.123930   5.969096   4.129142   5.186174   4.425128
    38  H    5.383822   6.092579   4.324456   5.101621   4.197577
    39  O    6.356374   7.266581   5.444424   6.359809   5.670815
    40  H    6.956963   7.819617   5.912634   7.083593   6.316947
    41  C    4.994924   5.867576   4.631104   4.068226   3.649500
    42  H    5.983096   6.898504   5.576838   5.141511   4.736586
    43  H    5.236884   5.967397   4.775716   3.951977   3.357047
    44  O    4.727291   5.592514   4.781206   3.575790   3.547470
    45  H    4.251188   4.995852   4.430909   2.714188   2.785300
                   21         22         23         24         25
    21  H    0.000000
    22  O    2.078924   0.000000
    23  H    2.331243   0.963825   0.000000
    24  C    4.330552   4.453958   5.027451   0.000000
    25  H    4.974577   4.947397   5.375055   1.104410   0.000000
    26  C    5.122272   4.226683   4.886634   2.359907   2.571588
    27  H    5.647098   4.725725   5.221240   2.598700   2.317450
    28  O    3.881451   3.450361   4.135701   1.402122   2.050586
    29  C    5.435550   5.641441   6.331986   1.518559   2.152359
    30  H    5.185713   5.519521   6.302105   2.131892   3.048590
    31  O    6.283713   6.770644   7.379131   2.428564   2.672003
    32  H    5.975915   6.753207   7.340018   2.693217   3.089992
    33  C    6.471307   6.232096   6.943800   2.459643   2.693001
    34  H    6.941162   6.633638   7.240012   2.708621   2.472294
    35  O    7.564930   7.401508   8.176223   3.727724   4.034183
    36  H    7.926477   7.965999   8.708867   3.964391   4.195763
    37  C    6.142356   5.471485   6.230448   2.852801   3.193237
    38  H    5.977332   5.380225   6.237298   3.264881   3.891065
    39  O    7.369664   6.439329   7.148513   4.102761   4.189348
    40  H    8.050431   7.252577   7.998202   4.600328   4.723226
    41  C    5.133774   3.709983   4.372242   3.646983   3.922013
    42  H    6.208277   4.679343   5.277659   4.465091   4.598031
    43  H    4.924969   3.583790   4.392406   3.949040   4.483040
    44  O    4.632769   2.916133   3.344813   4.040802   4.168194
    45  H    3.733924   1.954486   2.464453   3.952686   4.245590
                   26         27         28         29         30
    26  C    0.000000
    27  H    1.099921   0.000000
    28  O    1.424405   2.070617   0.000000
    29  C    2.883372   3.269377   2.385918   0.000000
    30  H    3.266691   3.931331   2.620253   1.096930   0.000000
    31  O    4.151266   4.298395   3.639035   1.414074   2.082346
    32  H    4.717510   4.945471   3.943490   1.934563   2.244300
    33  C    2.494231   2.762587   2.811972   1.517928   2.150996
    34  H    2.752170   2.563103   3.221315   2.137529   3.050315
    35  O    3.711758   4.056165   4.077485   2.427708   2.665087
    36  H    4.408529   4.645733   4.596685   2.553925   2.873603
    37  C    1.525159   2.156023   2.396735   2.504738   2.772156
    38  H    2.149131   3.059358   2.660233   2.765190   2.578893
    39  O    2.378490   2.604227   3.616235   3.743500   4.093326
    40  H    3.205403   3.447280   4.298566   3.930100   4.219502
    41  C    1.518083   2.142125   2.357006   4.264627   4.410171
    42  H    2.129788   2.460729   3.300545   4.912003   5.124228
    43  H    2.137578   3.044358   2.604958   4.389706   4.257798
    44  O    2.410808   2.639471   2.779093   5.044422   5.261500
    45  H    2.793073   3.197418   2.673989   5.049467   5.136098
                   31         32         33         34         35
    31  O    0.000000
    32  H    0.961269   0.000000
    33  C    2.367413   3.193969   0.000000
    34  H    2.572793   3.494745   1.100614   0.000000
    35  O    2.856359   3.641822   1.411278   2.067938   0.000000
    36  H    2.467112   3.234395   1.930271   2.324263   0.962431
    37  C    3.722765   4.420495   1.522356   2.137720   2.362886
    38  H    4.059043   4.610514   2.136772   3.038940   2.567697
    39  O    4.770151   5.579329   2.411013   2.607194   2.822931
    40  H    4.795349   5.634534   2.483893   2.738333   2.381391
    41  C    5.601419   6.094451   3.872422   4.191559   4.907664
    42  H    6.201704   6.804604   4.200388   4.404992   5.087723
    43  H    5.794690   6.196331   4.126216   4.691343   4.983123
    44  O    6.298137   6.693016   4.902404   5.066631   6.089787
    45  H    6.303719   6.564744   5.177819   5.457113   6.373440
                   36         37         38         39         40
    36  H    0.000000
    37  C    3.201045   0.000000
    38  H    3.444494   1.100340   0.000000
    39  O    3.694740   1.407381   2.074981   0.000000
    40  H    3.240649   1.921245   2.357861   0.962962   0.000000
    41  C    5.712550   2.552334   2.759362   2.973347   3.873625
    42  H    5.948099   2.781156   3.086968   2.646257   3.550912
    43  H    5.822361   2.764914   2.516118   3.339745   4.101122
    44  O    6.813316   3.782079   4.063247   4.233341   5.171131
    45  H    7.055709   4.156841   4.272589   4.846087   5.741346
                   41         42         43         44         45
    41  C    0.000000
    42  H    1.091127   0.000000
    43  H    1.097726   1.774811   0.000000
    44  O    1.405863   2.036862   2.080966   0.000000
    45  H    1.951562   2.814082   2.215286   0.968218   0.000000
 Stoichiometry    C12H22O11
 Framework group  C1[X(C12H22O11)]
 Deg. of freedom   129
 Full point group                 C1      NOp   1
 Largest Abelian subgroup         C1      NOp   1
 Largest concise Abelian subgroup C1      NOp   1
                         Standard orientation:                         
 ---------------------------------------------------------------------
 Center     Atomic      Atomic             Coordinates (Angstroms)
 Number     Number       Type             X           Y           Z
 ---------------------------------------------------------------------
      1          6           0        3.520865    0.407482   -0.661852
      2          1           0        2.990723    0.721317   -1.569445
      3          8           0        4.822271    0.834798   -0.797181
      4          1           0        5.339033    0.462287   -0.075875
      5          6           0        1.554211    0.804928    0.631941
      6          1           0        1.036230    1.100301   -0.288617
      7          8           0        2.951095    1.036735    0.478743
      8          6           0        3.396581   -1.102858   -0.477709
      9          1           0        3.960431   -1.379288    0.428775
     10          8           0        3.908306   -1.747319   -1.613608
     11          1           0        3.662028   -2.675222   -1.536529
     12          6           0        1.938804   -1.473213   -0.260163
     13          1           0        1.402743   -1.217383   -1.186456
     14          8           0        1.893012   -2.868559   -0.043078
     15          1           0        0.972980   -3.111580    0.100107
     16          6           0        1.350739   -0.689961    0.906194
     17          1           0        1.895241   -0.956201    1.816444
     18          8           0        0.010836   -1.117420    1.171638
     19          6           0        1.101359    1.718565    1.751115
     20          1           0        0.095699    1.459793    2.070257
     21          1           0        1.794110    1.612679    2.593834
     22          8           0        1.061209    3.062088    1.296145
     23          1           0        1.940807    3.271326    0.962251
     24          6           0       -0.983593   -0.758478    0.266676
     25          1           0       -0.715996   -1.073194   -0.757564
     26          6           0       -2.109842    1.086503   -0.680303
     27          1           0       -1.794741    0.757940   -1.681594
     28          8           0       -1.170261    0.630991    0.288524
     29          6           0       -2.270324   -1.449106    0.683062
     30          1           0       -2.523735   -1.115557    1.696858
     31          8           0       -2.155135   -2.856888    0.616087
     32          1           0       -1.613151   -3.138697    1.358296
     33          6           0       -3.366072   -1.030868   -0.280534
     34          1           0       -3.108817   -1.406214   -1.282675
     35          8           0       -4.629350   -1.520797    0.114185
     36          1           0       -4.555028   -2.477508    0.188039
     37          6           0       -3.473883    0.485744   -0.356896
     38          1           0       -3.799349    0.854212    0.627508
     39          8           0       -4.377255    0.870120   -1.365309
     40          1           0       -5.188736    0.373659   -1.215907
     41          6           0       -2.075706    2.603397   -0.630858
     42          1           0       -2.788519    2.986387   -1.362824
     43          1           0       -2.397518    2.927386    0.367376
     44          8           0       -0.796252    3.089702   -0.951723
     45          1           0       -0.251085    3.103145   -0.151686
 ---------------------------------------------------------------------
 Rotational constants (GHZ):           0.3852690           0.1745320           0.1379127
 Leave Link  202 at Thu Mar 16 18:22:50 2023, MaxMem=   262144000 cpu:               0.1 elap:               0.0
 (Enter /dragofs/sw/campus/0.2/software/gaussian/16.gaussian/gaussian/g16_legacy/l301.exe)
 Standard basis: 6-311G(d,p) (5D, 7F)
 Ernie: Thresh=  0.10000D-02 Tol=  0.10000D-05 Strict=F.
 There are   569 symmetry adapted cartesian basis functions of A   symmetry.
 There are   546 symmetry adapted basis functions of A   symmetry.
   546 basis functions,   912 primitive gaussians,   569 cartesian basis functions
    91 alpha electrons       91 beta electrons
       nuclear repulsion energy      2366.3570352306 Hartrees.
 IExCor= 4336 DFT=T Ex+Corr=M062X ExCW=0 ScaHFX=  0.540000
 ScaDFX=  1.000000  1.000000  1.000000  1.000000 ScalE2=  1.000000  1.000000
 IRadAn=      5 IRanWt=     -1 IRanGd=            0 ICorTp=0 IEmpDi=  4
 NAtoms=   45 NActive=   45 NUniq=   45 SFac= 1.00D+00 NAtFMM=   60 NAOKFM=F Big=F
 Integral buffers will be    131072 words long.
 Raffenetti 2 integral format.
 Two-electron integral symmetry is turned on.
 Leave Link  301 at Thu Mar 16 18:22:50 2023, MaxMem=   262144000 cpu:               0.4 elap:               0.1
 (Enter /dragofs/sw/campus/0.2/software/gaussian/16.gaussian/gaussian/g16_legacy/l302.exe)
 NPDir=0 NMtPBC=     1 NCelOv=     1 NCel=       1 NClECP=     1 NCelD=      1
         NCelK=      1 NCelE2=     1 NClLst=     1 CellRange=     0.0.
 One-electron integrals computed using PRISM.
 One-electron integral symmetry used in STVInt
 NBasis=   546 RedAO= T EigKep=  7.12D-04  NBF=   546
 NBsUse=   546 1.00D-06 EigRej= -1.00D+00 NBFU=   546
 Precomputing XC quadrature grid using
 IXCGrd= 4 IRadAn=           5 IRanWt=          -1 IRanGd=           0 AccXCQ= 0.00D+00.
 Generated NRdTot=       0 NPtTot=           0 NUsed=           0 NTot=          32
 NSgBfM=   565   565   565   565   565 MxSgAt=    45 MxSgA2=    45.
 Leave Link  302 at Thu Mar 16 18:22:51 2023, MaxMem=   262144000 cpu:               6.5 elap:               0.8
 (Enter /dragofs/sw/campus/0.2/software/gaussian/16.gaussian/gaussian/g16_legacy/l303.exe)
 DipDrv:  MaxL=1.
 Leave Link  303 at Thu Mar 16 18:22:51 2023, MaxMem=   262144000 cpu:               0.5 elap:               0.1
 (Enter /dragofs/sw/campus/0.2/software/gaussian/16.gaussian/gaussian/g16_legacy/l401.exe)
 ExpMin= 1.03D-01 ExpMax= 8.59D+03 ExpMxC= 1.30D+03 IAcc=3 IRadAn=         5 AccDes= 0.00D+00
 Harris functional with IExCor= 1009 and IRadAn=       5 diagonalized for initial guess.
 HarFok:  IExCor= 1009 AccDes= 0.00D+00 IRadAn=         5 IDoV= 1 UseB2=F ITyADJ=14
 ICtDFT=  3500011 ScaDFX=  1.000000  1.000000  1.000000  1.000000
 FoFCou: FMM=F IPFlag=           0 FMFlag=      100000 FMFlg1=           0
         NFxFlg=           0 DoJE=T BraDBF=F KetDBF=T FulRan=T
         wScrn=  0.000000 ICntrl=       500 IOpCl=  0 I1Cent=   200000004 NGrid=           0
         NMat0=    1 NMatS0=      1 NMatT0=    0 NMatD0=    1 NMtDS0=    0 NMtDT0=    0
 Petite list used in FoFCou.
 Harris En= -1297.12111244206    
 JPrj=0 DoOrth=F DoCkMO=F.
 Leave Link  401 at Thu Mar 16 18:22:56 2023, MaxMem=   262144000 cpu:              40.3 elap:               5.1
 (Enter /dragofs/sw/campus/0.2/software/gaussian/16.gaussian/gaussian/g16_legacy/l502.exe)
 Integral symmetry usage will be decided dynamically.
 Closed shell SCF:
 Using DIIS extrapolation, IDIIS=  1040.
 NGot=   262144000 LenX=   261486196 LenY=   261161866
 Requested convergence on RMS density matrix=1.00D-08 within 128 cycles.
 Requested convergence on MAX density matrix=1.00D-06.
 Requested convergence on             energy=1.00D-06.
 No special actions if energy rises.
 Fock matrices will be formed incrementally for  20 cycles.
 Integral accuracy reduced to 1.0D-05 until final iterations.

 Cycle   1  Pass 0  IDiag  1:
 FoFJK:  IHMeth= 1 ICntrl=       0 DoSepK=F KAlg= 0 I1Cent=           0 FoldK=F
 IRaf= 770000000 NMat=       1 IRICut=       1 DoRegI=T DoRafI=F ISym2E= 0 IDoP0=0 IntGTp=1.
 FoFCou: FMM=F IPFlag=           0 FMFlag=      100000 FMFlg1=           0
         NFxFlg=           0 DoJE=F BraDBF=F KetDBF=F FulRan=T
         wScrn=  0.000000 ICntrl=         0 IOpCl=  0 I1Cent=           0 NGrid=           0
         NMat0=    1 NMatS0=      1 NMatT0=    0 NMatD0=    1 NMtDS0=    0 NMtDT0=    0
 Symmetry not used in FoFCou.
 E= -1297.34292006665    
 DIIS: error= 1.94D-02 at cycle   1 NSaved=   1.
 NSaved= 1 IEnMin= 1 EnMin= -1297.34292006665     IErMin= 1 ErrMin= 1.94D-02
 ErrMax= 1.94D-02  0.00D+00 EMaxC= 1.00D-01 BMatC= 8.47D-01 BMatP= 8.47D-01
 IDIUse=3 WtCom= 8.06D-01 WtEn= 1.94D-01
 Coeff-Com:  0.100D+01
 Coeff-En:   0.100D+01
 Coeff:      0.100D+01
 Gap=     0.397 Goal=   None    Shift=    0.000
 GapD=    0.397 DampG=1.000 DampE=0.500 DampFc=0.5000 IDamp=-1.
 Damping current iteration by 5.00D-01
 RMSDP=2.60D-03 MaxDP=1.84D-01              OVMax= 1.13D-01

 Cycle   2  Pass 0  IDiag  1:
 RMSU=  1.30D-03    CP:  1.01D+00
 E= -1297.58443954154     Delta-E=       -0.241519474886 Rises=F Damp=T
 DIIS: error= 6.14D-03 at cycle   2 NSaved=   2.
 NSaved= 2 IEnMin= 2 EnMin= -1297.58443954154     IErMin= 2 ErrMin= 6.14D-03
 ErrMax= 6.14D-03  0.00D+00 EMaxC= 1.00D-01 BMatC= 6.94D-02 BMatP= 8.47D-01
 IDIUse=3 WtCom= 9.39D-01 WtEn= 6.14D-02
 Coeff-Com: -0.949D-01 0.109D+01
 Coeff-En:   0.000D+00 0.100D+01
 Coeff:     -0.890D-01 0.109D+01
 Gap=     0.382 Goal=   None    Shift=    0.000
 RMSDP=4.61D-04 MaxDP=1.48D-02 DE=-2.42D-01 OVMax= 5.61D-02

 Cycle   3  Pass 0  IDiag  1:
 RMSU=  4.56D-04    CP:  1.01D+00  9.49D-01
 E= -1297.81742822967     Delta-E=       -0.232988688138 Rises=F Damp=F
 DIIS: error= 3.01D-03 at cycle   3 NSaved=   3.
 NSaved= 3 IEnMin= 3 EnMin= -1297.81742822967     IErMin= 3 ErrMin= 3.01D-03
 ErrMax= 3.01D-03  0.00D+00 EMaxC= 1.00D-01 BMatC= 1.92D-02 BMatP= 6.94D-02
 IDIUse=3 WtCom= 9.70D-01 WtEn= 3.01D-02
 Coeff-Com: -0.111D+00 0.360D+00 0.750D+00
 Coeff-En:   0.000D+00 0.000D+00 0.100D+01
 Coeff:     -0.107D+00 0.349D+00 0.758D+00
 Gap=     0.382 Goal=   None    Shift=    0.000
 RMSDP=2.56D-04 MaxDP=1.09D-02 DE=-2.33D-01 OVMax= 1.23D-02

 Cycle   4  Pass 0  IDiag  1:
 RMSU=  1.87D-04    CP:  1.02D+00  1.04D+00  7.25D-01
 E= -1297.82852746403     Delta-E=       -0.011099234360 Rises=F Damp=F
 DIIS: error= 1.19D-03 at cycle   4 NSaved=   4.
 NSaved= 4 IEnMin= 4 EnMin= -1297.82852746403     IErMin= 4 ErrMin= 1.19D-03
 ErrMax= 1.19D-03  0.00D+00 EMaxC= 1.00D-01 BMatC= 2.61D-03 BMatP= 1.92D-02
 IDIUse=3 WtCom= 9.88D-01 WtEn= 1.19D-02
 Coeff-Com: -0.399D-01 0.934D-01 0.352D+00 0.595D+00
 Coeff-En:   0.000D+00 0.000D+00 0.725D-01 0.927D+00
 Coeff:     -0.394D-01 0.923D-01 0.348D+00 0.599D+00
 Gap=     0.370 Goal=   None    Shift=    0.000
 RMSDP=9.84D-05 MaxDP=3.64D-03 DE=-1.11D-02 OVMax= 4.60D-03

 Cycle   5  Pass 0  IDiag  1:
 RMSU=  3.50D-05    CP:  1.02D+00  1.03D+00  8.17D-01  5.74D-01
 E= -1297.83080619591     Delta-E=       -0.002278731877 Rises=F Damp=F
 DIIS: error= 1.49D-04 at cycle   5 NSaved=   5.
 NSaved= 5 IEnMin= 5 EnMin= -1297.83080619591     IErMin= 5 ErrMin= 1.49D-04
 ErrMax= 1.49D-04  0.00D+00 EMaxC= 1.00D-01 BMatC= 2.96D-05 BMatP= 2.61D-03
 IDIUse=3 WtCom= 9.99D-01 WtEn= 1.49D-03
 Coeff-Com: -0.620D-02 0.111D-01 0.624D-01 0.157D+00 0.776D+00
 Coeff-En:   0.000D+00 0.000D+00 0.000D+00 0.000D+00 0.100D+01
 Coeff:     -0.619D-02 0.111D-01 0.623D-01 0.156D+00 0.776D+00
 Gap=     0.371 Goal=   None    Shift=    0.000
 RMSDP=1.37D-05 MaxDP=5.97D-04 DE=-2.28D-03 OVMax= 5.76D-04

 Cycle   6  Pass 0  IDiag  1:
 RMSU=  9.17D-06    CP:  1.02D+00  1.03D+00  8.21D-01  6.18D-01  8.35D-01
 E= -1297.83082674466     Delta-E=       -0.000020548749 Rises=F Damp=F
 DIIS: error= 5.26D-05 at cycle   6 NSaved=   6.
 NSaved= 6 IEnMin= 6 EnMin= -1297.83082674466     IErMin= 6 ErrMin= 5.26D-05
 ErrMax= 5.26D-05  0.00D+00 EMaxC= 1.00D-01 BMatC= 5.05D-06 BMatP= 2.96D-05
 IDIUse=1 WtCom= 1.00D+00 WtEn= 0.00D+00
 Coeff-Com: -0.850D-03 0.531D-03 0.116D-01 0.436D-01 0.343D+00 0.602D+00
 Coeff:     -0.850D-03 0.531D-03 0.116D-01 0.436D-01 0.343D+00 0.602D+00
 Gap=     0.371 Goal=   None    Shift=    0.000
 RMSDP=4.18D-06 MaxDP=2.39D-04 DE=-2.05D-05 OVMax= 2.42D-04

 Initial convergence to 1.0D-05 achieved.  Increase integral accuracy.
 Cycle   7  Pass 1  IDiag  1:
 E= -1297.83077571923     Delta-E=        0.000051025431 Rises=F Damp=F
 DIIS: error= 2.60D-05 at cycle   1 NSaved=   1.
 NSaved= 1 IEnMin= 1 EnMin= -1297.83077571923     IErMin= 1 ErrMin= 2.60D-05
 ErrMax= 2.60D-05  0.00D+00 EMaxC= 1.00D-01 BMatC= 1.12D-06 BMatP= 1.12D-06
 IDIUse=1 WtCom= 1.00D+00 WtEn= 0.00D+00
 Coeff-Com:  0.100D+01
 Coeff:      0.100D+01
 Gap=     0.371 Goal=   None    Shift=    0.000
 RMSDP=4.18D-06 MaxDP=2.39D-04 DE= 5.10D-05 OVMax= 1.58D-04

 Cycle   8  Pass 1  IDiag  1:
 RMSU=  1.11D-05    CP:  1.00D+00
 E= -1297.83077625550     Delta-E=       -0.000000536267 Rises=F Damp=F
 DIIS: error= 2.58D-05 at cycle   2 NSaved=   2.
 NSaved= 2 IEnMin= 2 EnMin= -1297.83077625550     IErMin= 2 ErrMin= 2.58D-05
 ErrMax= 2.58D-05  0.00D+00 EMaxC= 1.00D-01 BMatC= 7.04D-07 BMatP= 1.12D-06
 IDIUse=1 WtCom= 1.00D+00 WtEn= 0.00D+00
 Coeff-Com:  0.425D+00 0.575D+00
 Coeff:      0.425D+00 0.575D+00
 Gap=     0.371 Goal=   None    Shift=    0.000
 RMSDP=1.55D-06 MaxDP=1.15D-04 DE=-5.36D-07 OVMax= 9.57D-05

 Cycle   9  Pass 1  IDiag  1:
 RMSU=  1.55D-06    CP:  1.00D+00  9.99D-01
 E= -1297.83077666649     Delta-E=       -0.000000410991 Rises=F Damp=F
 DIIS: error= 9.33D-06 at cycle   3 NSaved=   3.
 NSaved= 3 IEnMin= 3 EnMin= -1297.83077666649     IErMin= 3 ErrMin= 9.33D-06
 ErrMax= 9.33D-06  0.00D+00 EMaxC= 1.00D-01 BMatC= 8.63D-08 BMatP= 7.04D-07
 IDIUse=1 WtCom= 1.00D+00 WtEn= 0.00D+00
 Coeff-Com: -0.281D-01 0.248D+00 0.780D+00
 Coeff:     -0.281D-01 0.248D+00 0.780D+00
 Gap=     0.371 Goal=   None    Shift=    0.000
 RMSDP=5.10D-07 MaxDP=3.22D-05 DE=-4.11D-07 OVMax= 2.76D-05

 Cycle  10  Pass 1  IDiag  1:
 RMSU=  2.38D-07    CP:  1.00D+00  1.02D+00  7.68D-01
 E= -1297.83077672566     Delta-E=       -0.000000059169 Rises=F Damp=F
 DIIS: error= 8.66D-07 at cycle   4 NSaved=   4.
 NSaved= 4 IEnMin= 4 EnMin= -1297.83077672566     IErMin= 4 ErrMin= 8.66D-07
 ErrMax= 8.66D-07  0.00D+00 EMaxC= 1.00D-01 BMatC= 8.53D-10 BMatP= 8.63D-08
 IDIUse=1 WtCom= 1.00D+00 WtEn= 0.00D+00
 Coeff-Com: -0.134D-01 0.621D-01 0.222D+00 0.729D+00
 Coeff:     -0.134D-01 0.621D-01 0.222D+00 0.729D+00
 Gap=     0.371 Goal=   None    Shift=    0.000
 RMSDP=8.06D-08 MaxDP=3.20D-06 DE=-5.92D-08 OVMax= 4.61D-06

 Cycle  11  Pass 1  IDiag  1:
 RMSU=  7.81D-08    CP:  1.00D+00  1.02D+00  7.78D-01  9.76D-01
 E= -1297.83077672633     Delta-E=       -0.000000000671 Rises=F Damp=F
 DIIS: error= 3.63D-07 at cycle   5 NSaved=   5.
 NSaved= 5 IEnMin= 5 EnMin= -1297.83077672633     IErMin= 5 ErrMin= 3.63D-07
 ErrMax= 3.63D-07  0.00D+00 EMaxC= 1.00D-01 BMatC= 2.08D-10 BMatP= 8.53D-10
 IDIUse=1 WtCom= 1.00D+00 WtEn= 0.00D+00
 Coeff-Com: -0.125D-02-0.115D-01-0.261D-01 0.308D+00 0.731D+00
 Coeff:     -0.125D-02-0.115D-01-0.261D-01 0.308D+00 0.731D+00
 Gap=     0.371 Goal=   None    Shift=    0.000
 RMSDP=2.97D-08 MaxDP=2.10D-06 DE=-6.71D-10 OVMax= 1.68D-06

 Cycle  12  Pass 1  IDiag  1:
 RMSU=  1.92D-08    CP:  1.00D+00  1.02D+00  7.79D-01  1.06D+00  8.91D-01
 E= -1297.83077672646     Delta-E=       -0.000000000128 Rises=F Damp=F
 DIIS: error= 1.12D-07 at cycle   6 NSaved=   6.
 NSaved= 6 IEnMin= 6 EnMin= -1297.83077672646     IErMin= 6 ErrMin= 1.12D-07
 ErrMax= 1.12D-07  0.00D+00 EMaxC= 1.00D-01 BMatC= 1.51D-11 BMatP= 2.08D-10
 IDIUse=1 WtCom= 1.00D+00 WtEn= 0.00D+00
 Coeff-Com:  0.886D-03-0.105D-01-0.326D-01 0.431D-01 0.270D+00 0.729D+00
 Coeff:      0.886D-03-0.105D-01-0.326D-01 0.431D-01 0.270D+00 0.729D+00
 Gap=     0.371 Goal=   None    Shift=    0.000
 RMSDP=9.30D-09 MaxDP=4.49D-07 DE=-1.28D-10 OVMax= 6.78D-07

 SCF Done:  E(RM062X) =  -1297.83077673     A.U. after   12 cycles
            NFock= 12  Conv=0.93D-08     -V/T= 2.0029
 KE= 1.294080769796D+03 PE=-7.780370627258D+03 EE= 2.822102045505D+03
 Leave Link  502 at Thu Mar 16 18:28:00 2023, MaxMem=   262144000 cpu:            1462.7 elap:             304.2
 (Enter /dragofs/sw/campus/0.2/software/gaussian/16.gaussian/gaussian/g16_legacy/l601.exe)
 Copying SCF densities to generalized density rwf, IOpCl= 0 IROHF=0.

 **********************************************************************

            Population analysis using the SCF density.

 **********************************************************************

 Orbital symmetries:
       Occupied  (A) (A) (A) (A) (A) (A) (A) (A) (A) (A) (A) (A)
                 (A) (A) (A) (A) (A) (A) (A) (A) (A) (A) (A) (A)
                 (A) (A) (A) (A) (A) (A) (A) (A) (A) (A) (A) (A)
                 (A) (A) (A) (A) (A) (A) (A) (A) (A) (A) (A) (A)
                 (A) (A) (A) (A) (A) (A) (A) (A) (A) (A) (A) (A)
                 (A) (A) (A) (A) (A) (A) (A) (A) (A) (A) (A) (A)
                 (A) (A) (A) (A) (A) (A) (A) (A) (A) (A) (A) (A)
                 (A) (A) (A) (A) (A) (A) (A)
       Virtual   (A) (A) (A) (A) (A) (A) (A) (A) (A) (A) (A) (A)
                 (A) (A) (A) (A) (A) (A) (A) (A) (A) (A) (A) (A)
                 (A) (A) (A) (A) (A) (A) (A) (A) (A) (A) (A) (A)
                 (A) (A) (A) (A) (A) (A) (A) (A) (A) (A) (A) (A)
                 (A) (A) (A) (A) (A) (A) (A) (A) (A) (A) (A) (A)
                 (A) (A) (A) (A) (A) (A) (A) (A) (A) (A) (A) (A)
                 (A) (A) (A) (A) (A) (A) (A) (A) (A) (A) (A) (A)
                 (A) (A) (A) (A) (A) (A) (A) (A) (A) (A) (A) (A)
                 (A) (A) (A) (A) (A) (A) (A) (A) (A) (A) (A) (A)
                 (A) (A) (A) (A) (A) (A) (A) (A) (A) (A) (A) (A)
                 (A) (A) (A) (A) (A) (A) (A) (A) (A) (A) (A) (A)
                 (A) (A) (A) (A) (A) (A) (A) (A) (A) (A) (A) (A)
                 (A) (A) (A) (A) (A) (A) (A) (A) (A) (A) (A) (A)
                 (A) (A) (A) (A) (A) (A) (A) (A) (A) (A) (A) (A)
                 (A) (A) (A) (A) (A) (A) (A) (A) (A) (A) (A) (A)
                 (A) (A) (A) (A) (A) (A) (A) (A) (A) (A) (A) (A)
                 (A) (A) (A) (A) (A) (A) (A) (A) (A) (A) (A) (A)
                 (A) (A) (A) (A) (A) (A) (A) (A) (A) (A) (A) (A)
                 (A) (A) (A) (A) (A) (A) (A) (A) (A) (A) (A) (A)
                 (A) (A) (A) (A) (A) (A) (A) (A) (A) (A) (A) (A)
                 (A) (A) (A) (A) (A) (A) (A) (A) (A) (A) (A) (A)
                 (A) (A) (A) (A) (A) (A) (A) (A) (A) (A) (A) (A)
                 (A) (A) (A) (A) (A) (A) (A) (A) (A) (A) (A) (A)
                 (A) (A) (A) (A) (A) (A) (A) (A) (A) (A) (A) (A)
                 (A) (A) (A) (A) (A) (A) (A) (A) (A) (A) (A) (A)
                 (A) (A) (A) (A) (A) (A) (A) (A) (A) (A) (A) (A)
                 (A) (A) (A) (A) (A) (A) (A) (A) (A) (A) (A) (A)
                 (A) (A) (A) (A) (A) (A) (A) (A) (A) (A) (A) (A)
                 (A) (A) (A) (A) (A) (A) (A) (A) (A) (A) (A) (A)
                 (A) (A) (A) (A) (A) (A) (A) (A) (A) (A) (A) (A)
                 (A) (A) (A) (A) (A) (A) (A) (A) (A) (A) (A) (A)
                 (A) (A) (A) (A) (A) (A) (A) (A) (A) (A) (A) (A)
                 (A) (A) (A) (A) (A) (A) (A) (A) (A) (A) (A) (A)
                 (A) (A) (A) (A) (A) (A) (A) (A) (A) (A) (A) (A)
                 (A) (A) (A) (A) (A) (A) (A) (A) (A) (A) (A) (A)
                 (A) (A) (A) (A) (A) (A) (A) (A) (A) (A) (A) (A)
                 (A) (A) (A) (A) (A) (A) (A) (A) (A) (A) (A) (A)
                 (A) (A) (A) (A) (A) (A) (A) (A) (A) (A) (A)
 The electronic state is 1-A.
 Alpha  occ. eigenvalues --  -19.66723 -19.65243 -19.65189 -19.64395 -19.64277
 Alpha  occ. eigenvalues --  -19.63715 -19.63415 -19.63257 -19.62688 -19.62513
 Alpha  occ. eigenvalues --  -19.59817 -10.66600 -10.65130 -10.61774 -10.61286
 Alpha  occ. eigenvalues --  -10.61040 -10.60753 -10.60583 -10.60427 -10.60321
 Alpha  occ. eigenvalues --  -10.60170 -10.59161 -10.58038  -1.23919  -1.21651
 Alpha  occ. eigenvalues --   -1.18925  -1.18500  -1.17603  -1.16693  -1.16406
 Alpha  occ. eigenvalues --   -1.15197  -1.15089  -1.14189  -1.12813  -0.92274
 Alpha  occ. eigenvalues --   -0.90356  -0.88555  -0.87902  -0.80582  -0.78761
 Alpha  occ. eigenvalues --   -0.76343  -0.73537  -0.72028  -0.71760  -0.69942
 Alpha  occ. eigenvalues --   -0.69406  -0.65335  -0.64861  -0.63842  -0.62323
 Alpha  occ. eigenvalues --   -0.61401  -0.61105  -0.59739  -0.58965  -0.58362
 Alpha  occ. eigenvalues --   -0.58083  -0.57163  -0.55994  -0.55681  -0.55041
 Alpha  occ. eigenvalues --   -0.53956  -0.53240  -0.51809  -0.51501  -0.50846
 Alpha  occ. eigenvalues --   -0.50412  -0.49375  -0.48670  -0.47400  -0.47011
 Alpha  occ. eigenvalues --   -0.46234  -0.46014  -0.45281  -0.44461  -0.43878
 Alpha  occ. eigenvalues --   -0.43333  -0.42541  -0.42198  -0.41700  -0.40014
 Alpha  occ. eigenvalues --   -0.39881  -0.38770  -0.38039  -0.37604  -0.37355
 Alpha  occ. eigenvalues --   -0.36517  -0.36065  -0.35705  -0.34886  -0.33892
 Alpha  occ. eigenvalues --   -0.33639
 Alpha virt. eigenvalues --    0.03437   0.04888   0.06659   0.07068   0.07216
 Alpha virt. eigenvalues --    0.08451   0.08697   0.09239   0.10569   0.10736
 Alpha virt. eigenvalues --    0.11813   0.11933   0.12636   0.13485   0.14032
 Alpha virt. eigenvalues --    0.14542   0.14993   0.15891   0.16358   0.16701
 Alpha virt. eigenvalues --    0.17149   0.17408   0.18497   0.19878   0.20727
 Alpha virt. eigenvalues --    0.21072   0.22488   0.23205   0.23292   0.24029
 Alpha virt. eigenvalues --    0.24911   0.25134   0.26039   0.27210   0.28275
 Alpha virt. eigenvalues --    0.28693   0.29567   0.30490   0.30736   0.32160
 Alpha virt. eigenvalues --    0.33093   0.33587   0.34663   0.35064   0.36498
 Alpha virt. eigenvalues --    0.36799   0.38192   0.39548   0.39880   0.41155
 Alpha virt. eigenvalues --    0.41842   0.42418   0.42957   0.43286   0.43972
 Alpha virt. eigenvalues --    0.44429   0.46531   0.47389   0.47478   0.47600
 Alpha virt. eigenvalues --    0.48927   0.49210   0.49551   0.50071   0.50581
 Alpha virt. eigenvalues --    0.51369   0.51637   0.52114   0.53115   0.53661
 Alpha virt. eigenvalues --    0.54579   0.54847   0.56194   0.56501   0.56744
 Alpha virt. eigenvalues --    0.57311   0.58051   0.58516   0.58984   0.59798
 Alpha virt. eigenvalues --    0.60447   0.60871   0.61668   0.62668   0.62865
 Alpha virt. eigenvalues --    0.63035   0.63645   0.63978   0.64544   0.65088
 Alpha virt. eigenvalues --    0.65562   0.65698   0.66797   0.67087   0.67566
 Alpha virt. eigenvalues --    0.68416   0.68903   0.69119   0.70358   0.70961
 Alpha virt. eigenvalues --    0.71816   0.73256   0.74963   0.77424   0.79082
 Alpha virt. eigenvalues --    0.81880   0.83690   0.84352   0.86391   0.87251
 Alpha virt. eigenvalues --    0.88201   0.88511   0.89893   0.90596   0.91102
 Alpha virt. eigenvalues --    0.91347   0.92721   0.93336   0.94249   0.95663
 Alpha virt. eigenvalues --    0.96355   0.97901   0.98696   0.99100   0.99366
 Alpha virt. eigenvalues --    1.00190   1.01660   1.02233   1.03323   1.04575
 Alpha virt. eigenvalues --    1.05165   1.06106   1.06951   1.08426   1.08754
 Alpha virt. eigenvalues --    1.09016   1.10723   1.11131   1.11492   1.12788
 Alpha virt. eigenvalues --    1.13616   1.15166   1.15954   1.16540   1.17379
 Alpha virt. eigenvalues --    1.17697   1.19546   1.20816   1.22225   1.23314
 Alpha virt. eigenvalues --    1.23622   1.25554   1.26631   1.27120   1.28284
 Alpha virt. eigenvalues --    1.30510   1.31739   1.33398   1.34650   1.36168
 Alpha virt. eigenvalues --    1.37807   1.38993   1.39975   1.40181   1.41267
 Alpha virt. eigenvalues --    1.42662   1.43253   1.43730   1.44452   1.44974
 Alpha virt. eigenvalues --    1.46080   1.46799   1.48257   1.49649   1.49845
 Alpha virt. eigenvalues --    1.50421   1.50846   1.51312   1.51748   1.52692
 Alpha virt. eigenvalues --    1.53325   1.54014   1.55132   1.55455   1.56176
 Alpha virt. eigenvalues --    1.56456   1.56960   1.57795   1.58532   1.58852
 Alpha virt. eigenvalues --    1.60090   1.60352   1.60848   1.61300   1.62221
 Alpha virt. eigenvalues --    1.62916   1.63280   1.64098   1.65342   1.66087
 Alpha virt. eigenvalues --    1.66798   1.67479   1.67926   1.68801   1.70311
 Alpha virt. eigenvalues --    1.71081   1.72694   1.72799   1.73589   1.74412
 Alpha virt. eigenvalues --    1.76058   1.76529   1.77239   1.78256   1.79277
 Alpha virt. eigenvalues --    1.79926   1.80040   1.81934   1.82402   1.83612
 Alpha virt. eigenvalues --    1.84371   1.84731   1.85804   1.87222   1.87739
 Alpha virt. eigenvalues --    1.88338   1.89022   1.89771   1.91127   1.93198
 Alpha virt. eigenvalues --    1.93644   1.94612   1.96196   1.98020   1.98103
 Alpha virt. eigenvalues --    1.98886   1.99754   2.00609   2.03425   2.03761
 Alpha virt. eigenvalues --    2.04508   2.04786   2.06006   2.06976   2.07730
 Alpha virt. eigenvalues --    2.08966   2.09602   2.10151   2.11811   2.12178
 Alpha virt. eigenvalues --    2.13142   2.13525   2.15183   2.15970   2.16198
 Alpha virt. eigenvalues --    2.16710   2.16919   2.18598   2.18981   2.20513
 Alpha virt. eigenvalues --    2.22489   2.22688   2.24100   2.25657   2.26080
 Alpha virt. eigenvalues --    2.28979   2.30821   2.31685   2.31971   2.34006
 Alpha virt. eigenvalues --    2.34850   2.35808   2.42509   2.44320   2.44517
 Alpha virt. eigenvalues --    2.46258   2.46650   2.48567   2.50142   2.51542
 Alpha virt. eigenvalues --    2.53345   2.53698   2.54081   2.54914   2.56088
 Alpha virt. eigenvalues --    2.56757   2.57660   2.58000   2.59383   2.60582
 Alpha virt. eigenvalues --    2.61034   2.62078   2.63951   2.66374   2.68963
 Alpha virt. eigenvalues --    2.70103   2.72997   2.76110   2.77315   2.80012
 Alpha virt. eigenvalues --    2.80464   2.81010   2.81614   2.84217   2.85190
 Alpha virt. eigenvalues --    2.86201   2.86300   2.87159   2.89234   2.92566
 Alpha virt. eigenvalues --    2.93671   2.94546   2.95805   2.97475   2.98758
 Alpha virt. eigenvalues --    2.99009   3.00498   3.01901   3.02676   3.03759
 Alpha virt. eigenvalues --    3.04944   3.05240   3.06993   3.07950   3.10661
 Alpha virt. eigenvalues --    3.12052   3.13233   3.14150   3.16145   3.16279
 Alpha virt. eigenvalues --    3.17639   3.17913   3.19329   3.19680   3.20336
 Alpha virt. eigenvalues --    3.20631   3.22091   3.22487   3.22913   3.23702
 Alpha virt. eigenvalues --    3.24280   3.24890   3.25100   3.25680   3.28334
 Alpha virt. eigenvalues --    3.31282   3.32387   3.32732   3.33772   3.35784
 Alpha virt. eigenvalues --    3.36253   3.36455   3.38205   3.38907   3.40445
 Alpha virt. eigenvalues --    3.40847   3.42091   3.43119   3.44263   3.46048
[...]
    31  O   -0.000001   0.000008  -0.000000   0.000000   0.000000  -0.050612
    32  H   -0.000009   0.000003  -0.000000   0.000000   0.000000  -0.003380
    33  C    0.000004  -0.000027  -0.000002  -0.000000   0.000000  -0.067910
    34  H   -0.000000  -0.000006  -0.000000   0.000000   0.000000  -0.001321
    35  O   -0.000000  -0.000000   0.000000  -0.000000  -0.000000   0.006806
    36  H   -0.000000  -0.000000   0.000000  -0.000000  -0.000000   0.001751
    37  C    0.000063   0.000069   0.000005  -0.000006  -0.000002   0.008108
    38  H   -0.000029   0.000031   0.000000   0.000002   0.000000   0.000589
    39  O    0.000000   0.000001  -0.000000  -0.000000   0.000000  -0.000495
    40  H    0.000000   0.000000   0.000000  -0.000000  -0.000000  -0.000366
    41  C    0.001370   0.000801  -0.000035  -0.000461   0.000066   0.003768
    42  H    0.000065   0.000078  -0.000000  -0.000079   0.000001  -0.000204
    43  H   -0.000471   0.000369  -0.000005   0.000455  -0.000001  -0.001330
    44  O    0.002595   0.000672  -0.000048  -0.011638   0.000814  -0.001408
    45  H   -0.007702  -0.004643   0.001700   0.045312  -0.005231   0.000810
              25         26         27         28         29         30
     1  C    0.000190  -0.000015  -0.000007  -0.000022   0.000003   0.000000
     2  H   -0.000074   0.000002   0.000029  -0.000105   0.000005   0.000001
     3  O    0.000002  -0.000000  -0.000000  -0.000000  -0.000000  -0.000000
     4  H    0.000000  -0.000000   0.000000  -0.000000   0.000000   0.000000
     5  C   -0.001311  -0.000443  -0.000145  -0.007003   0.000623  -0.000209
     6  H   -0.006608  -0.002090   0.001168   0.005400   0.000702  -0.000135
     7  O   -0.000026   0.000007  -0.000009   0.000121  -0.000001  -0.000000
     8  C   -0.000155   0.000002   0.000003   0.000015  -0.000038  -0.000004
     9  H   -0.000235   0.000001   0.000000   0.000001   0.000006  -0.000001
    10  O   -0.000127   0.000000   0.000000  -0.000000   0.000000   0.000000
    11  H   -0.000002  -0.000000   0.000000   0.000000   0.000002   0.000000
    12  C    0.008154  -0.000136   0.000006  -0.001160   0.000502   0.000002
    13  H   -0.011251  -0.000036   0.000015  -0.000007   0.001420  -0.000168
    14  O    0.000827   0.000003  -0.000003   0.000002  -0.000299  -0.000021
    15  H    0.002838   0.000038  -0.000012   0.000203  -0.002033   0.000438
    16  C   -0.015924   0.000472  -0.000042   0.002335   0.004692  -0.000545
    17  H   -0.000711   0.000010  -0.000000  -0.000445  -0.000005  -0.000105
    18  O   -0.050959   0.003564  -0.000026  -0.050974  -0.036152   0.001646
    19  C    0.000251  -0.000501  -0.000277  -0.006161  -0.000209  -0.000019
    20  H    0.002036  -0.001630   0.000391   0.010073  -0.000773   0.000695
    21  H   -0.000049  -0.000039  -0.000002   0.000381   0.000038  -0.000011
    22  O   -0.000006  -0.000252   0.000016   0.000018   0.000000  -0.000000
    23  H   -0.000001   0.000030   0.000002  -0.000187  -0.000002   0.000000
    24  C    0.384521  -0.084960  -0.012345   0.222978   0.179483  -0.050944
    25  H    0.643896   0.003190   0.008973  -0.052789  -0.076042   0.014080
    26  C    0.003190   5.506263   0.384811   0.197708  -0.008949   0.001777
    27  H    0.008973   0.384811   0.561674  -0.038900   0.002046   0.000279
    28  O   -0.052789   0.197708  -0.038900   8.216480  -0.036425   0.003219
    29  C   -0.076042  -0.008949   0.002046  -0.036425   5.321967   0.394064
    30  H    0.014080   0.001777   0.000279   0.003219   0.394064   0.537539
    31  O    0.011455   0.000192  -0.000108   0.001947   0.233475  -0.033149
    32  H   -0.001732   0.000007   0.000026   0.000073  -0.036839  -0.010391
    33  C   -0.000627  -0.026085  -0.014023  -0.008788   0.211725  -0.045717
    34  H    0.006117  -0.003049   0.005015   0.000682  -0.045534   0.009683
    35  O   -0.000126   0.002921  -0.000094  -0.000071  -0.042242   0.004822
    36  H   -0.000072  -0.000900  -0.000070  -0.000038  -0.010931  -0.001431
    37  C   -0.006577   0.105632  -0.059466  -0.034899  -0.068230  -0.002293
    38  H    0.000043  -0.045142   0.010632   0.002906   0.001083   0.006202
    39  O   -0.000160  -0.046769   0.009004   0.001452   0.006893   0.000014
    40  H   -0.000022   0.010909  -0.000826  -0.000253   0.001570  -0.000047
    41  C    0.000835   0.249299  -0.030654  -0.039370  -0.001474  -0.000103
    42  H    0.000085  -0.057262  -0.006623   0.004542  -0.000022   0.000014
    43  H   -0.000016  -0.063432   0.011803  -0.002228  -0.000057  -0.000019
    44  O   -0.000423  -0.060509   0.006206   0.000061  -0.000038   0.000004
    45  H    0.000043   0.002694  -0.001569   0.003765   0.000048  -0.000003
              31         32         33         34         35         36
     1  C   -0.000000  -0.000003  -0.000000   0.000000   0.000000   0.000000
     2  H    0.000000  -0.000000   0.000001   0.000001  -0.000000   0.000000
     3  O    0.000000   0.000000   0.000000  -0.000000  -0.000000   0.000000
     4  H   -0.000000   0.000000   0.000000   0.000000  -0.000000   0.000000
     5  C   -0.000000   0.000170   0.000025  -0.000018   0.000000   0.000000
     6  H   -0.000036   0.000007  -0.000236  -0.000046   0.000001  -0.000000
     7  O   -0.000000  -0.000001  -0.000000  -0.000000   0.000000  -0.000000
     8  C   -0.000004   0.000029  -0.000000  -0.000002  -0.000000   0.000000
     9  H    0.000000   0.000004   0.000000   0.000000   0.000000   0.000000
    10  O    0.000000  -0.000000   0.000000   0.000000  -0.000000  -0.000000
    11  H   -0.000000  -0.000005   0.000000   0.000000  -0.000000   0.000000
    12  C   -0.000786   0.000207  -0.000032  -0.000045  -0.000000   0.000000
    13  H   -0.000462   0.000103   0.000049  -0.000129   0.000000   0.000001
    14  O   -0.000341   0.000541  -0.000001  -0.000003   0.000000   0.000000
    15  H    0.011654   0.000741   0.000105   0.000113  -0.000003  -0.000020
    16  C   -0.000743  -0.000344  -0.000126   0.000072   0.000001   0.000001
    17  H    0.000013  -0.000037   0.000008  -0.000001  -0.000000   0.000000
    18  O   -0.001243   0.008511   0.003591  -0.000149  -0.000016  -0.000008
    19  C   -0.000001  -0.000009   0.000004  -0.000000  -0.000000  -0.000000
    20  H    0.000008   0.000003  -0.000027  -0.000006  -0.000000  -0.000000
    21  H   -0.000000  -0.000000  -0.000002  -0.000000   0.000000   0.000000
    22  O    0.000000   0.000000  -0.000000   0.000000  -0.000000  -0.000000
    23  H    0.000000   0.000000   0.000000   0.000000  -0.000000  -0.000000
    24  C   -0.050612  -0.003380  -0.067910  -0.001321   0.006806   0.001751
    25  H    0.011455  -0.001732  -0.000627   0.006117  -0.000126  -0.000072
    26  C    0.000192   0.000007  -0.026085  -0.003049   0.002921  -0.000900
    27  H   -0.000108   0.000026  -0.014023   0.005015  -0.000094  -0.000070
    28  O    0.001947   0.000073  -0.008788   0.000682  -0.000071  -0.000038
    29  C    0.233475  -0.036839   0.211725  -0.045534  -0.042242  -0.010931
    30  H   -0.033149  -0.010391  -0.045717   0.009683   0.004822  -0.001431
    31  O    7.976704   0.319416  -0.044844   0.000269  -0.001454   0.014558
    32  H    0.319416   0.441016   0.009075  -0.000787  -0.000362  -0.000592
    33  C   -0.044844   0.009075   5.294459   0.379334   0.243730  -0.041563
    34  H    0.000269  -0.000787   0.379334   0.565594  -0.035969  -0.005244
    35  O   -0.001454  -0.000362   0.243730  -0.035969   7.966584   0.324026
    36  H    0.014558  -0.000592  -0.041563  -0.005244   0.324026   0.436416
    37  C    0.003861  -0.000641   0.224945  -0.050335  -0.049318   0.012622
    38  H   -0.000218  -0.000021  -0.056758   0.011469   0.003308  -0.000789
    39  O   -0.000016   0.000006  -0.032911   0.007684  -0.003703  -0.000509
    40  H   -0.000020   0.000006  -0.005133  -0.001599   0.015793  -0.000908
    41  C    0.000007  -0.000002   0.005376  -0.000733  -0.000051   0.000019
    42  H    0.000000  -0.000000   0.000190   0.000021  -0.000002   0.000002
    43  H    0.000001   0.000000  -0.000560  -0.000048  -0.000002  -0.000003
    44  O   -0.000000   0.000000  -0.000172   0.000002   0.000000  -0.000000
    45  H   -0.000000  -0.000000   0.000077   0.000003  -0.000000   0.000000
              37         38         39         40         41         42
     1  C   -0.000000   0.000000  -0.000000  -0.000000   0.000001   0.000000
     2  H   -0.000003   0.000000   0.000000  -0.000000   0.000004  -0.000001
     3  O   -0.000000   0.000000  -0.000000  -0.000000  -0.000000  -0.000000
     4  H   -0.000000  -0.000000   0.000000   0.000000   0.000000  -0.000000
     5  C    0.000001  -0.000005  -0.000000  -0.000000  -0.000188  -0.000020
     6  H    0.001468   0.000021  -0.000008   0.000002  -0.001508   0.000155
     7  O    0.000000  -0.000000  -0.000000   0.000000   0.000000   0.000000
     8  C    0.000000   0.000000   0.000000   0.000000   0.000000   0.000000
     9  H   -0.000000  -0.000000   0.000000  -0.000000  -0.000000  -0.000000
    10  O   -0.000000  -0.000000   0.000000  -0.000000  -0.000000  -0.000000
    11  H    0.000000  -0.000000  -0.000000   0.000000  -0.000000  -0.000000
    12  C    0.000014  -0.000000   0.000000   0.000000  -0.000003   0.000001
    13  H   -0.000015  -0.000003   0.000001  -0.000000  -0.000013  -0.000001
    14  O   -0.000000  -0.000000  -0.000000   0.000000   0.000000  -0.000000
    15  H   -0.000002   0.000001   0.000000   0.000000   0.000001  -0.000000
    16  C   -0.000117   0.000006  -0.000000  -0.000000   0.000069  -0.000003
    17  H   -0.000001  -0.000001   0.000000  -0.000000  -0.000002  -0.000000
    18  O   -0.000554  -0.000067   0.000000   0.000000  -0.000162   0.000005
    19  C    0.000063  -0.000029   0.000000   0.000000   0.001370   0.000065
    20  H    0.000069   0.000031   0.000001   0.000000   0.000801   0.000078
    21  H    0.000005   0.000000  -0.000000   0.000000  -0.000035  -0.000000
    22  O   -0.000006   0.000002  -0.000000  -0.000000  -0.000461  -0.000079
    23  H   -0.000002   0.000000   0.000000  -0.000000   0.000066   0.000001
    24  C    0.008108   0.000589  -0.000495  -0.000366   0.003768  -0.000204
    25  H   -0.006577   0.000043  -0.000160  -0.000022   0.000835   0.000085
    26  C    0.105632  -0.045142  -0.046769   0.010909   0.249299  -0.057262
    27  H   -0.059466   0.010632   0.009004  -0.000826  -0.030654  -0.006623
    28  O   -0.034899   0.002906   0.001452  -0.000253  -0.039370   0.004542
    29  C   -0.068230   0.001083   0.006893   0.001570  -0.001474  -0.000022
    30  H   -0.002293   0.006202   0.000014  -0.000047  -0.000103   0.000014
    31  O    0.003861  -0.000218  -0.000016  -0.000020   0.000007   0.000000
    32  H   -0.000641  -0.000021   0.000006   0.000006  -0.000002  -0.000000
    33  C    0.224945  -0.056758  -0.032911  -0.005133   0.005376   0.000190
    34  H   -0.050335   0.011469   0.007684  -0.001599  -0.000733   0.000021
    35  O   -0.049318   0.003308  -0.003703   0.015793  -0.000051  -0.000002
    36  H    0.012622  -0.000789  -0.000509  -0.000908   0.000019   0.000002
    37  C    5.343510   0.380027   0.222908  -0.045942  -0.033931   0.001191
    38  H    0.380027   0.573855  -0.033114  -0.004821  -0.009782   0.000078
    39  O    0.222908  -0.033114   7.959740   0.320380  -0.002332   0.012111
    40  H   -0.045942  -0.004821   0.320380   0.440159  -0.000170  -0.000189
    41  C   -0.033931  -0.009782  -0.002332  -0.000170   4.824533   0.410222
    42  H    0.001191   0.000078   0.012111  -0.000189   0.410222   0.542629
    43  H   -0.001422   0.005786  -0.000312  -0.000095   0.408804  -0.034633
    44  O    0.005350  -0.000065   0.000010   0.000011   0.292449  -0.031133
    45  H   -0.001142  -0.000070  -0.000004  -0.000002  -0.042750   0.004843
              43         44         45
     1  C   -0.000000  -0.000005   0.000014
     2  H   -0.000001  -0.000103   0.000005
     3  O   -0.000000  -0.000000   0.000000
     4  H    0.000000  -0.000000  -0.000000
     5  C   -0.000028  -0.003256   0.000044
     6  H    0.000936   0.017215   0.000597
     7  O    0.000000   0.000012  -0.000350
     8  C    0.000000   0.000001  -0.000020
     9  H   -0.000000  -0.000000  -0.000001
    10  O   -0.000000  -0.000000   0.000000
    11  H    0.000000   0.000000  -0.000000
    12  C   -0.000001  -0.000002   0.000020
    13  H   -0.000000  -0.000019  -0.000001
    14  O   -0.000000  -0.000000  -0.000000
    15  H    0.000000   0.000000  -0.000000
    16  C    0.000001   0.000076  -0.000054
    17  H    0.000001  -0.000001   0.000021
    18  O   -0.000015   0.000003   0.000030
    19  C   -0.000471   0.002595  -0.007702
    20  H    0.000369   0.000672  -0.004643
    21  H   -0.000005  -0.000048   0.001700
    22  O    0.000455  -0.011638   0.045312
    23  H   -0.000001   0.000814  -0.005231
    24  C   -0.001330  -0.001408   0.000810
    25  H   -0.000016  -0.000423   0.000043
    26  C   -0.063432  -0.060509   0.002694
    27  H    0.011803   0.006206  -0.001569
    28  O   -0.002228   0.000061   0.003765
    29  C   -0.000057  -0.000038   0.000048
    30  H   -0.000019   0.000004  -0.000003
    31  O    0.000001  -0.000000  -0.000000
    32  H    0.000000   0.000000  -0.000000
    33  C   -0.000560  -0.000172   0.000077
    34  H   -0.000048   0.000002   0.000003
    35  O   -0.000002   0.000000  -0.000000
    36  H   -0.000003  -0.000000   0.000000
    37  C   -0.001422   0.005350  -0.001142
    38  H    0.005786  -0.000065  -0.000070
    39  O   -0.000312   0.000010  -0.000004
    40  H   -0.000095   0.000011  -0.000002
    41  C    0.408804   0.292449  -0.042750
    42  H   -0.034633  -0.031133   0.004843
    43  H    0.591779  -0.033606  -0.011094
    44  O   -0.033606   7.923752   0.321510
    45  H   -0.011094   0.321510   0.414521
 Mulliken charges:
               1
     1  C    0.227116
     2  H    0.153496
     3  O   -0.369337
     4  H    0.248870
     5  C   -0.086125
     6  H    0.157918
     7  O   -0.397658
     8  C    0.010129
     9  H    0.139049
    10  O   -0.405398
    11  H    0.267883
    12  C   -0.055864
    13  H    0.159616
    14  O   -0.425106
    15  H    0.259815
    16  C    0.011374
    17  H    0.180341
    18  O   -0.401273
    19  C   -0.018566
    20  H    0.164700
    21  H    0.143805
    22  O   -0.434599
    23  H    0.277726
    24  C    0.217631
    25  H    0.138487
    26  C   -0.067334
    27  H    0.163102
    28  O   -0.394538
    29  C    0.005950
    30  H    0.170834
    31  O   -0.439525
    32  H    0.275204
    33  C   -0.027181
    34  H    0.158956
    35  O   -0.434578
    36  H    0.273680
    37  C    0.045119
    38  H    0.154844
    39  O   -0.419871
    40  H    0.271561
    41  C   -0.033903
    42  H    0.153938
    43  H    0.129445
    44  O   -0.428316
    45  H    0.278583
 Sum of Mulliken charges =  -0.00000
 Mulliken charges with hydrogens summed into heavy atoms:
               1
     1  C    0.380612
     3  O   -0.120467
     5  C    0.071793
     7  O   -0.397658
     8  C    0.149178
    10  O   -0.137515
    12  C    0.103752
    14  O   -0.165291
    16  C    0.191715
    18  O   -0.401273
    19  C    0.289939
    22  O   -0.156874
    24  C    0.356118
    26  C    0.095769
    28  O   -0.394538
    29  C    0.176784
    31  O   -0.164321
    33  C    0.131775
    35  O   -0.160898
    37  C    0.199963
    39  O   -0.148311
    41  C    0.249480
    44  O   -0.149733
 Electronic spatial extent (au):  <R**2>=           7867.5482
 Charge=             -0.0000 electrons
 Dipole moment (field-independent basis, Debye):
    X=             -0.9538    Y=             -4.3660    Z=              3.2202  Tot=              5.5083
 Quadrupole moment (field-independent basis, Debye-Ang):
   XX=           -138.8556   YY=           -140.7936   ZZ=           -139.7863
   XY=              5.4905   XZ=              7.4643   YZ=              2.0496
 Traceless Quadrupole moment (field-independent basis, Debye-Ang):
   XX=              0.9562   YY=             -0.9818   ZZ=              0.0256
   XY=              5.4905   XZ=              7.4643   YZ=              2.0496
 Octapole moment (field-independent basis, Debye-Ang**2):
  XXX=            -13.9098  YYY=            -64.2798  ZZZ=             15.0541  XYY=             -3.9275
  XXY=            -16.8334  XXZ=             56.8739  XZZ=            -11.1165  YZZ=            -17.4485
  YYZ=             15.2409  XYZ=             -3.2188
 Hexadecapole moment (field-independent basis, Debye-Ang**3):
 XXXX=          -6036.8582 YYYY=          -2604.7188 ZZZZ=           -790.7017 XXXY=             36.6553
 XXXZ=            300.2421 YYYX=            121.2242 YYYZ=              3.9884 ZZZX=              8.0507
 ZZZY=            -10.9615 XXYY=          -1398.3852 XXZZ=          -1251.7691 YYZZ=           -568.9764
 XXYZ=             43.8907 YYXZ=            -46.2763 ZZXY=             38.1399
 N-N= 2.365529619482D+03 E-N=-7.778671061025D+03  KE= 1.294084057193D+03
 No NMR shielding tensors so no spin-rotation constants.
 Leave Link  601 at Thu Mar 16 20:03:06 2023, MaxMem=   262144000 cpu:               7.0 elap:               1.8
 (Enter /dragofs/sw/campus/0.2/software/gaussian/16.gaussian/gaussian/g16_legacy/l9999.exe)
 1\1\GINC-DRAGO31070213\FOpt\RM062X\6-311G(d,p)\C12H22O11\JRAMOS\16-Mar
 -2023\0\\#p opt M062X/6-311g(d,p)\\Optimization 03-DIHEDRAL_PHI_PSI_14
 b/dimer14b_000_006.log\\0,1\C,3.5070019601,0.3274004772,-0.7214850608\
 H,2.960410296,0.6027403557,-1.632040007\O,4.8122526674,0.7199688885,-0
 .9116808157\H,5.3399105165,0.377396986,-0.1834565699\C,1.589945691,0.8
 223540123,0.6165695074\H,1.0306183003,1.0988195912,-0.2883172261\O,2.9
 798746061,1.0307360591,0.3959241511\C,3.3592962097,-1.1707223246,-0.45
 85499785\H,3.9351453851,-1.4138895351,0.4498751251\O,3.8371638039,-1.8
 782347927,-1.5710238383\H,3.5627778183,-2.7936936441,-1.4506786113\C,1
 .8968007639,-1.4969093309,-0.2039712613\H,1.3592266691,-1.2544751086,-
 1.1317901511\O,1.8089422464,-2.8826392268,0.0563549379\H,0.8757250267,
 -3.1077278732,0.1276161528\C,1.3625059621,-0.656178193,0.9469232109\H,
 1.9198496764,-0.9097212907,1.852898592\O,0.0104401022,-0.9921702731,1.
 2625767211\C,1.1871746112,1.7683985391,1.7286083998\H,0.2009275283,1.5
 084878116,2.1039041221\H,1.9218814291,1.6895394396,2.5382036471\O,1.10
 83881737,3.0983695861,1.2435968948\H,1.9622425361,3.3090641551,0.85008
 82192\C,-0.9572885653,-0.6577877391,0.3243880607\H,-0.6261773233,-0.90
 07317474,-0.6987069477\C,-2.1494517227,1.1466025405,-0.6011008612\H,-1
 .7643856771,0.8587543714,-1.590767134\O,-1.2405918302,0.7152374191,0.4
 084293788\C,-2.2157851763,-1.4454419733,0.6446440914\H,-2.5345018788,-
 1.1801180297,1.6596864302\O,-1.9984893456,-2.8398472745,0.5213649148\H
 ,-1.5332799113,-3.129066721,1.3111900073\C,-3.2950288612,-1.05016746,-
 0.3466016496\H,-2.9750590902,-1.3629979623,-1.3522789278\O,-4.54145028
 62,-1.6311627721,-0.0290717819\H,-4.4154677075,-2.5849120088,-0.005277
 4009\C,-3.4908545988,0.4605926307,-0.365417654\H,-3.8801829046,0.76861
 24766,0.6163616266\O,-4.3698280608,0.8331068105,-1.3994837333\H,-5.157
 7137608,0.2876344221,-1.3050831385\C,-2.1898443784,2.6609960815,-0.530
 4546329\H,-2.9106603822,3.0203657845,-1.2662110681\H,-2.5363372387,2.9
 570949343,0.4683676073\O,-0.9330974005,3.2099880944,-0.8379273909\H,-0
 .3580608792,3.1615078136,-0.0605269578\\Version=EM64L-G16RevA.03\State
 =1-A\HF=-1297.8316356\RMSD=4.509e-09\RMSF=5.841e-06\Dipole=-0.4165908,
 -1.7345303,1.2305705\Quadrupole=0.7994984,-0.9445139,0.1450155,3.93173
 99,5.661218,1.4205406\PG=C01 [X(C12H22O11)]\\@


 PERICLES, SOPHOCLES,
 PELOPONESIAN WAR,
 FRENCH VERBS, LATIN VERBS
 H2SO4.
 Job cpu time:       0 days  7 hours 21 minutes 34.1 seconds.
 Elapsed time:       0 days  1 hours 40 minutes 15.8 seconds.
 File lengths (MBytes):  RWF=    189 Int=      0 D2E=      0 Chk=     24 Scr=      1
 Normal termination of Gaussian 16 at Thu Mar 16 20:03:07 2023.
