 Entering Gaussian System, Link 0=/dragofs/sw/campus/0.2/software/gaussian/16.gaussian/gaussian/g16_legacy/g16
 Input=dimer14b_000_009_opt.com
 Output=dimer14b_000_009_opt.log
 Initial command:
 /dragofs/sw/campus/0.2/software/gaussian/16.gaussian/gaussian/g16_legacy/l1.exe "/tmp/jramos/82087/Gau-1766520.inp" -scrdir="/tmp/jramos/82087/"
 Entering Link 1 = /dragofs/sw/campus/0.2/software/gaussian/16.gaussian/gaussian/g16_legacy/l1.exe PID=   1766521.
  
 Copyright (c) 1988,1990,1992,1993,1995,1998,2003,2009,2016,
            Gaussian, Inc.  All Rights Reserved.
  
 This is part of the Gaussian(R) 16 program.  It is based on
 the Gaussian(R) 09 system (copyright 2009, Gaussian, Inc.),
 the Gaussian(R) 03 system (copyright 2003, Gaussian, Inc.),
 the Gaussian(R) 98 system (copyright 1998, Gaussian, Inc.),
 the Gaussian(R) 94 system (copyright 1995, Gaussian, Inc.),
 the Gaussian 92(TM) system (copyright 1992, Gaussian, Inc.),
 the Gaussian 90(TM) system (copyright 1990, Gaussian, Inc.),
 the Gaussian 88(TM) system (copyright 1988, Gaussian, Inc.),
 the Gaussian 86(TM) system (copyright 1986, Carnegie Mellon
 University), and the Gaussian 82(TM) system (copyright 1983,
 Carnegie Mellon University). Gaussian is a federally registered
 trademark of Gaussian, Inc.
  
 This software contains proprietary and confidential information,
 including trade secrets, belonging to Gaussian, Inc.
  
 This software is provided under written license and may be
 used, copied, transmitted, or stored only in accord with that
 written license.
  
 The following legend is applicable only to US Government
 contracts under FAR:
  
                    RESTRICTED RIGHTS LEGEND
  
 Use, reproduction and disclosure by the US Government is
 subject to restrictions as set forth in subparagraphs (a)
 and (c) of the Commercial Computer Software - Restricted
 Rights clause in FAR 52.227-19.
  
 Gaussian, Inc.
 340 Quinnipiac St., Bldg. 40, Wallingford CT 06492
  
  
 ---------------------------------------------------------------
 Warning -- This program may not be used in any manner that
 competes with the business of Gaussian, Inc. or will provide
 assistance to any competitor of Gaussian, Inc.  The licensee
 of this program is prohibited from giving any competitor of
 Gaussian, Inc. access to this program.  By using this program,
 the user acknowledges that Gaussian, Inc. is engaged in the
 business of creating and licensing software in the field of
 computational chemistry and represents and warrants to the
 licensee that it is not a competitor of Gaussian, Inc. and that
 it will not use this program in any manner prohibited above.
 ---------------------------------------------------------------
  

 Cite this work as:
 Gaussian 16, Revision A.03,
 M. J. Frisch, G. W. Trucks, H. B. Schlegel, G. E. Scuseria, 
 M. A. Robb, J. R. Cheeseman, G. Scalmani, V. Barone, 
 G. A. Petersson, H. Nakatsuji, X. Li, M. Caricato, A. V. Marenich, 
 J. Bloino, B. G. Janesko, R. Gomperts, B. Mennucci, H. P. Hratchian, 
 J. V. Ortiz, A. F. Izmaylov, J. L. Sonnenberg, D. Williams-Young, 
 F. Ding, F. Lipparini, F. Egidi, J. Goings, B. Peng, A. Petrone, 
 T. Henderson, D. Ranasinghe, V. G. Zakrzewski, J. Gao, N. Rega, 
 G. Zheng, W. Liang, M. Hada, M. Ehara, K. Toyota, R. Fukuda, 
 J. Hasegawa, M. Ishida, T. Nakajima, Y. Honda, O. Kitao, H. Nakai, 
 T. Vreven, K. Throssell, J. A. Montgomery, Jr., J. E. Peralta, 
 F. Ogliaro, M. J. Bearpark, J. J. Heyd, E. N. Brothers, K. N. Kudin, 
 V. N. Staroverov, T. A. Keith, R. Kobayashi, J. Normand, 
 K. Raghavachari, A. P. Rendell, J. C. Burant, S. S. Iyengar, 
 J. Tomasi, M. Cossi, J. M. Millam, M. Klene, C. Adamo, R. Cammi, 
 J. W. Ochterski, R. L. Martin, K. Morokuma, O. Farkas, 
 J. B. Foresman, and D. J. Fox, Gaussian, Inc., Wallingford CT, 2016.
 
 ******************************************
 Gaussian 16:  EM64L-G16RevA.03 25-Dec-2016
                16-Mar-2023 
 ******************************************
 %chk=dimer14b_000_009_opt.chk
 %mem=2000MB
 %nproc=8
 Will use up to    8 processors via shared memory.
 ------------------------
 #p opt M062X/6-311g(d,p)
 ------------------------
 1/18=20,19=15,26=3,38=1/1,3;
 2/9=110,12=2,17=6,18=5,40=1/2;
 3/5=4,6=6,7=101,11=2,25=1,30=1,71=1,74=-55/1,2,3;
 4//1;
 5/5=2,38=5/2;
 6/7=2,8=2,9=2,10=2,28=1/1;
 7//1,2,3,16;
 1/18=20,19=15,26=3/3(2);
 2/9=110/2;
 99//99;
 2/9=110/2;
 3/5=4,6=6,7=101,11=2,25=1,30=1,71=1,74=-55/1,2,3;
 4/5=5,16=3,69=1/1;
 5/5=2,38=5/2;
 7//1,2,3,16;
 1/18=20,19=15,26=3/3(-5);
 2/9=110/2;
 6/7=2,8=2,9=2,10=2,19=2,28=1/1;
 99/9=1/99;
 Leave Link    1 at Thu Mar 16 18:57:56 2023, MaxMem=   262144000 cpu:               0.2 elap:               0.0
 (Enter /dragofs/sw/campus/0.2/software/gaussian/16.gaussian/gaussian/g16_legacy/l101.exe)
 ---------------------------------------------------------
 Optimization 03-DIHEDRAL_PHI_PSI_14b/dimer14b_000_009.log
 ---------------------------------------------------------
 Symbolic Z-matrix:
 Charge =  0 Multiplicity = 1
 C                    -3.70623  -0.67354   0.30891 
 H                    -3.42369  -1.00857   1.31471 
 O                    -5.03205  -1.0072    0.14021 
 H                    -5.26438  -0.8569   -0.78145 
 C                    -2.271     1.22239   0.47733 
 H                    -1.94644   0.89396   1.47595 
 O                    -3.57925   0.7374    0.21232 
 C                    -2.78259  -1.30184  -0.72845 
 H                    -3.11019  -0.95635  -1.72327 
 O                    -2.871    -2.69898  -0.62541 
 H                    -2.19039  -3.04623  -1.212 
 C                    -1.3373   -0.85155  -0.49983 
 H                    -1.05146  -1.16645   0.50925 
 O                    -0.5129   -1.51614  -1.43725 
 H                     0.08869  -2.07362  -0.921 
 C                    -1.29903   0.67978  -0.56834 
 H                    -1.65823   0.97811  -1.56319 
 O                    -0.046     1.33891  -0.36277 
 C                    -2.39041   2.73534   0.46514 
 H                    -1.43179   3.18202   0.72506 
 H                    -2.66589   3.05335  -0.55071 
 O                    -3.33702   3.16129   1.41425 
 H                    -4.1244    2.62746   1.26327 
 C                     1.12699   0.61474  -0.48268 
 H                     1.18431   0.12092  -1.4611 
 C                     2.33444  -1.18818   0.33733 
 H                     2.37831  -1.5026   -0.71775 
 O                     1.2129   -0.34628   0.5449 
 C                     2.28747   1.58305  -0.28921 
 H                     2.16365   2.05082   0.69639 
 O                     2.36394   2.55071  -1.31306 
 H                     1.534     3.03725  -1.31211 
 C                     3.5966    0.80824  -0.32217 
 H                     3.72657   0.40955  -1.33984 
 O                     4.69831   1.61975   0.02463 
 H                     4.68289   2.38441  -0.56011 
 C                     3.58487  -0.37521   0.63787 
 H                     3.53276   0.00311   1.66834 
 O                     4.71921  -1.18743   0.44798 
 H                     5.48303  -0.60062   0.44625 
 C                     2.11581  -2.43395   1.15373 
 H                     3.01317  -3.05698   1.11728 
 H                     1.89131  -2.15876   2.18934 
 O                     1.0028   -3.08253   0.54065 
 H                     0.6788   -3.78551   1.10719 
 
 ITRead=  0  0  0  0  0  0  0  0  0  0  0  0  0  0  0  0  0  0  0  0
 ITRead=  0  0  0  0  0  0  0  0  0  0  0  0  0  0  0  0  0  0  0  0
 ITRead=  0  0  0  0  0
 MicOpt= -1 -1 -1 -1 -1 -1 -1 -1 -1 -1 -1 -1 -1 -1 -1 -1 -1 -1 -1 -1
 MicOpt= -1 -1 -1 -1 -1 -1 -1 -1 -1 -1 -1 -1 -1 -1 -1 -1 -1 -1 -1 -1
 MicOpt= -1 -1 -1 -1 -1
 NAtoms=     45 NQM=       45 NQMF=       0 NMMI=      0 NMMIF=      0
                NMic=       0 NMicF=      0.
                    Isotopes and Nuclear Properties:
 (Nuclear quadrupole moments (NQMom) in fm**2, nuclear magnetic moments (NMagM)
  in nuclear magnetons)

  Atom         1           2           3           4           5           6           7           8           9          10
 IAtWgt=          12           1          16           1          12           1          16          12           1          16
 AtmWgt=  12.0000000   1.0078250  15.9949146   1.0078250  12.0000000   1.0078250  15.9949146  12.0000000   1.0078250  15.9949146
 NucSpn=           0           1           0           1           0           1           0           0           1           0
 AtZEff=  -0.0000000  -0.0000000  -0.0000000  -0.0000000  -0.0000000  -0.0000000  -0.0000000  -0.0000000  -0.0000000  -0.0000000
 NQMom=    0.0000000   0.0000000   0.0000000   0.0000000   0.0000000   0.0000000   0.0000000   0.0000000   0.0000000   0.0000000
 NMagM=    0.0000000   2.7928460   0.0000000   2.7928460   0.0000000   2.7928460   0.0000000   0.0000000   2.7928460   0.0000000
 AtZNuc=   6.0000000   1.0000000   8.0000000   1.0000000   6.0000000   1.0000000   8.0000000   6.0000000   1.0000000   8.0000000

  Atom        11          12          13          14          15          16          17          18          19          20
 IAtWgt=           1          12           1          16           1          12           1          16          12           1
 AtmWgt=   1.0078250  12.0000000   1.0078250  15.9949146   1.0078250  12.0000000   1.0078250  15.9949146  12.0000000   1.0078250
 NucSpn=           1           0           1           0           1           0           1           0           0           1
 AtZEff=  -0.0000000  -0.0000000  -0.0000000  -0.0000000  -0.0000000  -0.0000000  -0.0000000  -0.0000000  -0.0000000  -0.0000000
 NQMom=    0.0000000   0.0000000   0.0000000   0.0000000   0.0000000   0.0000000   0.0000000   0.0000000   0.0000000   0.0000000
 NMagM=    2.7928460   0.0000000   2.7928460   0.0000000   2.7928460   0.0000000   2.7928460   0.0000000   0.0000000   2.7928460
 AtZNuc=   1.0000000   6.0000000   1.0000000   8.0000000   1.0000000   6.0000000   1.0000000   8.0000000   6.0000000   1.0000000

  Atom        21          22          23          24          25          26          27          28          29          30
 IAtWgt=           1          16           1          12           1          12           1          16          12           1
 AtmWgt=   1.0078250  15.9949146   1.0078250  12.0000000   1.0078250  12.0000000   1.0078250  15.9949146  12.0000000   1.0078250
 NucSpn=           1           0           1           0           1           0           1           0           0           1
 AtZEff=  -0.0000000  -0.0000000  -0.0000000  -0.0000000  -0.0000000  -0.0000000  -0.0000000  -0.0000000  -0.0000000  -0.0000000
 NQMom=    0.0000000   0.0000000   0.0000000   0.0000000   0.0000000   0.0000000   0.0000000   0.0000000   0.0000000   0.0000000
 NMagM=    2.7928460   0.0000000   2.7928460   0.0000000   2.7928460   0.0000000   2.7928460   0.0000000   0.0000000   2.7928460
 AtZNuc=   1.0000000   8.0000000   1.0000000   6.0000000   1.0000000   6.0000000   1.0000000   8.0000000   6.0000000   1.0000000

  Atom        31          32          33          34          35          36          37          38          39          40
 IAtWgt=          16           1          12           1          16           1          12           1          16           1
 AtmWgt=  15.9949146   1.0078250  12.0000000   1.0078250  15.9949146   1.0078250  12.0000000   1.0078250  15.9949146   1.0078250
 NucSpn=           0           1           0           1           0           1           0           1           0           1
 AtZEff=  -0.0000000  -0.0000000  -0.0000000  -0.0000000  -0.0000000  -0.0000000  -0.0000000  -0.0000000  -0.0000000  -0.0000000
 NQMom=    0.0000000   0.0000000   0.0000000   0.0000000   0.0000000   0.0000000   0.0000000   0.0000000   0.0000000   0.0000000
 NMagM=    0.0000000   2.7928460   0.0000000   2.7928460   0.0000000   2.7928460   0.0000000   2.7928460   0.0000000   2.7928460
 AtZNuc=   8.0000000   1.0000000   6.0000000   1.0000000   8.0000000   1.0000000   6.0000000   1.0000000   8.0000000   1.0000000

  Atom        41          42          43          44          45
 IAtWgt=          12           1           1          16           1
 AtmWgt=  12.0000000   1.0078250   1.0078250  15.9949146   1.0078250
 NucSpn=           0           1           1           0           1
 AtZEff=  -0.0000000  -0.0000000  -0.0000000  -0.0000000  -0.0000000
 NQMom=    0.0000000   0.0000000   0.0000000   0.0000000   0.0000000
 NMagM=    0.0000000   2.7928460   2.7928460   0.0000000   2.7928460
 AtZNuc=   6.0000000   1.0000000   1.0000000   8.0000000   1.0000000
 Leave Link  101 at Thu Mar 16 18:57:56 2023, MaxMem=   262144000 cpu:               1.0 elap:               0.1
 (Enter /dragofs/sw/campus/0.2/software/gaussian/16.gaussian/gaussian/g16_legacy/l103.exe)

 GradGradGradGradGradGradGradGradGradGradGradGradGradGradGradGradGradGrad
 Berny optimization.
 Initialization pass.
                           ----------------------------
                           !    Initial Parameters    !
                           ! (Angstroms and Degrees)  !
 --------------------------                            --------------------------
 ! Name  Definition              Value          Derivative Info.                !
 --------------------------------------------------------------------------------
 ! R1    R(1,2)                  1.0971         estimate D2E/DX2                !
 ! R2    R(1,3)                  1.3775         estimate D2E/DX2                !
 ! R3    R(1,7)                  1.4199         estimate D2E/DX2                !
 ! R4    R(1,8)                  1.5245         estimate D2E/DX2                !
 ! R5    R(3,4)                  0.9623         estimate D2E/DX2                !
 ! R6    R(5,6)                  1.1002         estimate D2E/DX2                !
 ! R7    R(5,7)                  1.4202         estimate D2E/DX2                !
 ! R8    R(5,16)                 1.5273         estimate D2E/DX2                !
 ! R9    R(5,19)                 1.5177         estimate D2E/DX2                !
 ! R10   R(8,9)                  1.1029         estimate D2E/DX2                !
 ! R11   R(8,10)                 1.4037         estimate D2E/DX2                !
 ! R12   R(8,12)                 1.531          estimate D2E/DX2                !
 ! R13   R(10,11)                0.9633         estimate D2E/DX2                !
 ! R14   R(12,13)                1.095          estimate D2E/DX2                !
 ! R15   R(12,14)                1.4142         estimate D2E/DX2                !
 ! R16   R(12,16)                1.5333         estimate D2E/DX2                !
 ! R17   R(14,15)                0.9691         estimate D2E/DX2                !
 ! R18   R(16,17)                1.099          estimate D2E/DX2                !
 ! R19   R(16,18)                1.4307         estimate D2E/DX2                !
 ! R20   R(18,24)                1.3837         estimate D2E/DX2                !
 ! R21   R(19,20)                1.0891         estimate D2E/DX2                !
 ! R22   R(19,21)                1.0995         estimate D2E/DX2                !
 ! R23   R(19,22)                1.4065         estimate D2E/DX2                !
 ! R24   R(22,23)                0.9632         estimate D2E/DX2                !
 ! R25   R(24,25)                1.0975         estimate D2E/DX2                !
 ! R26   R(24,28)                1.4096         estimate D2E/DX2                !
 ! R27   R(24,29)                1.5237         estimate D2E/DX2                !
 ! R28   R(26,27)                1.1018         estimate D2E/DX2                !
 ! R29   R(26,28)                1.4176         estimate D2E/DX2                !
 ! R30   R(26,37)                1.5215         estimate D2E/DX2                !
 ! R31   R(26,41)                1.5054         estimate D2E/DX2                !
 ! R32   R(29,30)                1.098          estimate D2E/DX2                !
 ! R33   R(29,31)                1.4108         estimate D2E/DX2                !
 ! R34   R(29,33)                1.5216         estimate D2E/DX2                !
 ! R35   R(31,32)                0.962          estimate D2E/DX2                !
 ! R36   R(33,34)                1.1007         estimate D2E/DX2                !
 ! R37   R(33,35)                1.4116         estimate D2E/DX2                !
 ! R38   R(33,37)                1.5239         estimate D2E/DX2                !
 ! R39   R(35,36)                0.9627         estimate D2E/DX2                !
 ! R40   R(37,38)                1.099          estimate D2E/DX2                !
 ! R41   R(37,39)                1.408          estimate D2E/DX2                !
 ! R42   R(39,40)                0.9632         estimate D2E/DX2                !
 ! R43   R(41,42)                1.093          estimate D2E/DX2                !
 ! R44   R(41,43)                1.0948         estimate D2E/DX2                !
 ! R45   R(41,44)                1.4267         estimate D2E/DX2                !
 ! R46   R(44,45)                0.9592         estimate D2E/DX2                !
 ! A1    A(2,1,3)              106.628          estimate D2E/DX2                !
 ! A2    A(2,1,7)              110.0455         estimate D2E/DX2                !
 ! A3    A(2,1,8)              109.9956         estimate D2E/DX2                !
 ! A4    A(3,1,7)              108.5674         estimate D2E/DX2                !
 ! A5    A(3,1,8)              113.5761         estimate D2E/DX2                !
 ! A6    A(7,1,8)              108.0033         estimate D2E/DX2                !
 ! A7    A(1,3,4)              108.1696         estimate D2E/DX2                !
 ! A8    A(6,5,7)              109.827          estimate D2E/DX2                !
 ! A9    A(6,5,16)             109.1263         estimate D2E/DX2                !
 ! A10   A(6,5,19)             109.1523         estimate D2E/DX2                !
 ! A11   A(7,5,16)             109.7039         estimate D2E/DX2                !
 ! A12   A(7,5,19)             105.4529         estimate D2E/DX2                !
 ! A13   A(16,5,19)            113.4991         estimate D2E/DX2                !
 ! A14   A(1,7,5)              114.1426         estimate D2E/DX2                !
 ! A15   A(1,8,9)              107.7414         estimate D2E/DX2                !
 ! A16   A(1,8,10)             108.7903         estimate D2E/DX2                !
 ! A17   A(1,8,12)             110.4342         estimate D2E/DX2                !
 ! A18   A(9,8,10)             111.0576         estimate D2E/DX2                !
 ! A19   A(9,8,12)             108.8428         estimate D2E/DX2                !
 ! A20   A(10,8,12)            109.9519         estimate D2E/DX2                !
 ! A21   A(8,10,11)            105.6404         estimate D2E/DX2                !
 ! A22   A(8,12,13)            107.4242         estimate D2E/DX2                !
 ! A23   A(8,12,14)            108.2468         estimate D2E/DX2                !
 ! A24   A(8,12,16)            108.0966         estimate D2E/DX2                !
 ! A25   A(13,12,14)           108.876          estimate D2E/DX2                !
 ! A26   A(13,12,16)           108.7745         estimate D2E/DX2                !
 ! A27   A(14,12,16)           115.16           estimate D2E/DX2                !
 ! A28   A(12,14,15)           106.2049         estimate D2E/DX2                !
 ! A29   A(5,16,12)            107.9592         estimate D2E/DX2                !
 ! A30   A(5,16,17)            108.3811         estimate D2E/DX2                !
 ! A31   A(5,16,18)            107.1775         estimate D2E/DX2                !
 ! A32   A(12,16,17)           107.6616         estimate D2E/DX2                !
 ! A33   A(12,16,18)           118.395          estimate D2E/DX2                !
 ! A34   A(17,16,18)           106.9343         estimate D2E/DX2                !
 ! A35   A(16,18,24)           119.2675         estimate D2E/DX2                !
 ! A36   A(5,19,20)            109.737          estimate D2E/DX2                !
 ! A37   A(5,19,21)            108.388          estimate D2E/DX2                !
 ! A38   A(5,19,22)            110.4519         estimate D2E/DX2                !
 ! A39   A(20,19,21)           108.8091         estimate D2E/DX2                !
 ! A40   A(20,19,22)           107.8872         estimate D2E/DX2                !
 ! A41   A(21,19,22)           111.5446         estimate D2E/DX2                !
 ! A42   A(19,22,23)           106.0545         estimate D2E/DX2                !
 ! A43   A(18,24,25)           110.9169         estimate D2E/DX2                !
 ! A44   A(18,24,28)           110.1998         estimate D2E/DX2                !
 ! A45   A(18,24,29)           107.5795         estimate D2E/DX2                !
 ! A46   A(25,24,28)           109.8751         estimate D2E/DX2                !
 ! A47   A(25,24,29)           111.0614         estimate D2E/DX2                !
 ! A48   A(28,24,29)           107.1146         estimate D2E/DX2                !
 ! A49   A(27,26,28)           109.9493         estimate D2E/DX2                !
 ! A50   A(27,26,37)           107.9938         estimate D2E/DX2                !
 ! A51   A(27,26,41)           106.7944         estimate D2E/DX2                !
 ! A52   A(28,26,37)           107.6952         estimate D2E/DX2                !
 ! A53   A(28,26,41)           107.2863         estimate D2E/DX2                !
 ! A54   A(37,26,41)           117.027          estimate D2E/DX2                !
 ! A55   A(24,28,26)           110.265          estimate D2E/DX2                !
 ! A56   A(24,29,30)           107.387          estimate D2E/DX2                !
 ! A57   A(24,29,31)           112.6434         estimate D2E/DX2                !
 ! A58   A(24,29,33)           109.2027         estimate D2E/DX2                !
 ! A59   A(30,29,31)           111.4287         estimate D2E/DX2                !
 ! A60   A(30,29,33)           109.4756         estimate D2E/DX2                !
 ! A61   A(31,29,33)           106.6727         estimate D2E/DX2                !
 ! A62   A(29,31,32)           107.4214         estimate D2E/DX2                !
 ! A63   A(29,33,34)           107.8221         estimate D2E/DX2                !
 ! A64   A(29,33,35)           111.9276         estimate D2E/DX2                !
 ! A65   A(29,33,37)           112.0351         estimate D2E/DX2                !
 ! A66   A(34,33,35)           110.0737         estimate D2E/DX2                !
 ! A67   A(34,33,37)           107.5824         estimate D2E/DX2                !
 ! A68   A(35,33,37)           107.3189         estimate D2E/DX2                !
 ! A69   A(33,35,36)           107.1512         estimate D2E/DX2                !
 ! A70   A(26,37,33)           107.2678         estimate D2E/DX2                !
 ! A71   A(26,37,38)           109.2811         estimate D2E/DX2                !
 ! A72   A(26,37,39)           109.102          estimate D2E/DX2                !
 ! A73   A(33,37,38)           108.8889         estimate D2E/DX2                !
 ! A74   A(33,37,39)           110.9045         estimate D2E/DX2                !
 ! A75   A(38,37,39)           111.2996         estimate D2E/DX2                !
 ! A76   A(37,39,40)           106.7191         estimate D2E/DX2                !
 ! A77   A(26,41,42)           109.5344         estimate D2E/DX2                !
 ! A78   A(26,41,43)           109.5581         estimate D2E/DX2                !
 ! A79   A(26,41,44)           104.8603         estimate D2E/DX2                !
 ! A80   A(42,41,43)           110.0698         estimate D2E/DX2                !
 ! A81   A(42,41,44)           111.5325         estimate D2E/DX2                !
 ! A82   A(43,41,44)           111.1485         estimate D2E/DX2                !
 ! A83   A(41,44,45)           110.0523         estimate D2E/DX2                !
 ! D1    D(2,1,3,4)           -170.7903         estimate D2E/DX2                !
 ! D2    D(7,1,3,4)             70.6755         estimate D2E/DX2                !
 ! D3    D(8,1,3,4)            -49.4783         estimate D2E/DX2                !
 ! D4    D(2,1,7,5)             58.7905         estimate D2E/DX2                !
 ! D5    D(3,1,7,5)            175.1433         estimate D2E/DX2                !
 ! D6    D(8,1,7,5)            -61.2965         estimate D2E/DX2                !
 ! D7    D(2,1,8,9)            178.9621         estimate D2E/DX2                !
 ! D8    D(2,1,8,10)            58.4753         estimate D2E/DX2                !
 ! D9    D(2,1,8,12)           -62.2825         estimate D2E/DX2                !
 ! D10   D(3,1,8,9)             59.553          estimate D2E/DX2                !
 ! D11   D(3,1,8,10)           -60.9338         estimate D2E/DX2                !
 ! D12   D(3,1,8,12)           178.3084         estimate D2E/DX2                !
 ! D13   D(7,1,8,9)            -60.9195         estimate D2E/DX2                !
 ! D14   D(7,1,8,10)           178.5937         estimate D2E/DX2                !
 ! D15   D(7,1,8,12)            57.8359         estimate D2E/DX2                !
 ! D16   D(6,5,7,1)            -56.7469         estimate D2E/DX2                !
 ! D17   D(16,5,7,1)            63.1927         estimate D2E/DX2                !
 ! D18   D(19,5,7,1)          -174.2312         estimate D2E/DX2                !
 ! D19   D(6,5,16,12)           61.2467         estimate D2E/DX2                !
 ! D20   D(6,5,16,17)          177.5924         estimate D2E/DX2                !
 ! D21   D(6,5,16,18)          -67.3213         estimate D2E/DX2                !
 ! D22   D(7,5,16,12)          -59.1195         estimate D2E/DX2                !
 ! D23   D(7,5,16,17)           57.2263         estimate D2E/DX2                !
 ! D24   D(7,5,16,18)          172.3126         estimate D2E/DX2                !
 ! D25   D(19,5,16,12)        -176.7859         estimate D2E/DX2                !
 ! D26   D(19,5,16,17)         -60.4402         estimate D2E/DX2                !
 ! D27   D(19,5,16,18)          54.6461         estimate D2E/DX2                !
 ! D28   D(6,5,19,20)           58.4943         estimate D2E/DX2                !
 ! D29   D(6,5,19,21)          177.1951         estimate D2E/DX2                !
 ! D30   D(6,5,19,22)          -60.3261         estimate D2E/DX2                !
 ! D31   D(7,5,19,20)          176.4332         estimate D2E/DX2                !
 ! D32   D(7,5,19,21)          -64.866          estimate D2E/DX2                !
 ! D33   D(7,5,19,22)           57.6128         estimate D2E/DX2                !
 ! D34   D(16,5,19,20)         -63.4587         estimate D2E/DX2                !
 ! D35   D(16,5,19,21)          55.2422         estimate D2E/DX2                !
 ! D36   D(16,5,19,22)         177.721          estimate D2E/DX2                !
 ! D37   D(1,8,10,11)         -172.6707         estimate D2E/DX2                !
 ! D38   D(9,8,10,11)           68.9109         estimate D2E/DX2                !
 ! D39   D(12,8,10,11)         -51.6165         estimate D2E/DX2                !
 ! D40   D(1,8,12,13)           59.4136         estimate D2E/DX2                !
 ! D41   D(1,8,12,14)          176.8332         estimate D2E/DX2                !
 ! D42   D(1,8,12,16)          -57.8083         estimate D2E/DX2                !
 ! D43   D(9,8,12,13)          177.4961         estimate D2E/DX2                !
 ! D44   D(9,8,12,14)          -65.0842         estimate D2E/DX2                !
 ! D45   D(9,8,12,16)           60.2742         estimate D2E/DX2                !
 ! D46   D(10,8,12,13)         -60.6484         estimate D2E/DX2                !
 ! D47   D(10,8,12,14)          56.7712         estimate D2E/DX2                !
 ! D48   D(10,8,12,16)        -177.8703         estimate D2E/DX2                !
 ! D49   D(8,12,14,15)        -116.6442         estimate D2E/DX2                !
 ! D50   D(13,12,14,15)         -0.1606         estimate D2E/DX2                !
 ! D51   D(16,12,14,15)        122.2776         estimate D2E/DX2                !
 ! D52   D(8,12,16,5)           57.1993         estimate D2E/DX2                !
 ! D53   D(8,12,16,17)         -59.6143         estimate D2E/DX2                !
 ! D54   D(8,12,16,18)         179.0793         estimate D2E/DX2                !
 ! D55   D(13,12,16,5)         -59.1483         estimate D2E/DX2                !
 ! D56   D(13,12,16,17)       -175.9619         estimate D2E/DX2                !
 ! D57   D(13,12,16,18)         62.7317         estimate D2E/DX2                !
 ! D58   D(14,12,16,5)         178.3592         estimate D2E/DX2                !
 ! D59   D(14,12,16,17)         61.5456         estimate D2E/DX2                !
 ! D60   D(14,12,16,18)        -59.7608         estimate D2E/DX2                !
 ! D61   D(5,16,18,24)         140.2053         estimate D2E/DX2                !
 ! D62   D(12,16,18,24)         17.9304         estimate D2E/DX2                !
 ! D63   D(17,16,18,24)       -103.7457         estimate D2E/DX2                !
 ! D64   D(16,18,24,25)         55.2727         estimate D2E/DX2                !
 ! D65   D(16,18,24,28)        -66.6267         estimate D2E/DX2                !
 ! D66   D(16,18,24,29)        176.918          estimate D2E/DX2                !
 ! D67   D(5,19,22,23)         -49.6025         estimate D2E/DX2                !
 ! D68   D(20,19,22,23)       -169.5423         estimate D2E/DX2                !
 ! D69   D(21,19,22,23)         71.0078         estimate D2E/DX2                !
 ! D70   D(18,24,28,26)        173.3787         estimate D2E/DX2                !
 ! D71   D(25,24,28,26)         50.8644         estimate D2E/DX2                !
 ! D72   D(29,24,28,26)        -69.876          estimate D2E/DX2                !
 ! D73   D(18,24,29,30)         57.6644         estimate D2E/DX2                !
 ! D74   D(18,24,29,31)        -65.3898         estimate D2E/DX2                !
 ! D75   D(18,24,29,33)        176.2854         estimate D2E/DX2                !
 ! D76   D(25,24,29,30)        179.2195         estimate D2E/DX2                !
 ! D77   D(25,24,29,31)         56.1654         estimate D2E/DX2                !
 ! D78   D(25,24,29,33)        -62.1595         estimate D2E/DX2                !
 ! D79   D(28,24,29,30)        -60.7959         estimate D2E/DX2                !
 ! D80   D(28,24,29,31)        176.1499         estimate D2E/DX2                !
 ! D81   D(28,24,29,33)         57.825          estimate D2E/DX2                !
 ! D82   D(27,26,28,24)        -45.3897         estimate D2E/DX2                !
 ! D83   D(37,26,28,24)         72.0464         estimate D2E/DX2                !
 ! D84   D(41,26,28,24)       -161.1675         estimate D2E/DX2                !
 ! D85   D(27,26,37,33)         58.5666         estimate D2E/DX2                !
 ! D86   D(27,26,37,38)        176.4648         estimate D2E/DX2                !
 ! D87   D(27,26,37,39)        -61.6373         estimate D2E/DX2                !
 ! D88   D(28,26,37,33)        -60.1303         estimate D2E/DX2                !
 ! D89   D(28,26,37,38)         57.7679         estimate D2E/DX2                !
 ! D90   D(28,26,37,39)        179.6657         estimate D2E/DX2                !
 ! D91   D(41,26,37,33)        179.0128         estimate D2E/DX2                !
 ! D92   D(41,26,37,38)        -63.089          estimate D2E/DX2                !
 ! D93   D(41,26,37,39)         58.8088         estimate D2E/DX2                !
 ! D94   D(27,26,41,42)         68.9614         estimate D2E/DX2                !
 ! D95   D(27,26,41,43)       -170.2106         estimate D2E/DX2                !
 ! D96   D(27,26,41,44)        -50.8444         estimate D2E/DX2                !
 ! D97   D(28,26,41,42)       -173.1876         estimate D2E/DX2                !
 ! D98   D(28,26,41,43)        -52.3596         estimate D2E/DX2                !
 ! D99   D(28,26,41,44)         67.0066         estimate D2E/DX2                !
 ! D100  D(37,26,41,42)        -52.1161         estimate D2E/DX2                !
 ! D101  D(37,26,41,43)         68.712          estimate D2E/DX2                !
 ! D102  D(37,26,41,44)       -171.9218         estimate D2E/DX2                !
 ! D103  D(24,29,31,32)         59.2095         estimate D2E/DX2                !
 ! D104  D(30,29,31,32)        -61.5573         estimate D2E/DX2                !
 ! D105  D(33,29,31,32)        179.0082         estimate D2E/DX2                !
 ! D106  D(24,29,33,34)         66.5117         estimate D2E/DX2                !
 ! D107  D(24,29,33,35)       -172.2858         estimate D2E/DX2                !
 ! D108  D(24,29,33,37)        -51.6803         estimate D2E/DX2                !
 ! D109  D(30,29,33,34)       -176.1784         estimate D2E/DX2                !
 ! D110  D(30,29,33,35)        -54.9759         estimate D2E/DX2                !
 ! D111  D(30,29,33,37)         65.6296         estimate D2E/DX2                !
 ! D112  D(31,29,33,34)        -55.4856         estimate D2E/DX2                !
 ! D113  D(31,29,33,35)         65.7169         estimate D2E/DX2                !
 ! D114  D(31,29,33,37)       -173.6776         estimate D2E/DX2                !
 ! D115  D(29,33,35,36)        -54.4637         estimate D2E/DX2                !
 ! D116  D(34,33,35,36)         65.4289         estimate D2E/DX2                !
 ! D117  D(37,33,35,36)       -177.7736         estimate D2E/DX2                !
 ! D118  D(29,33,37,26)         52.2345         estimate D2E/DX2                !
 ! D119  D(29,33,37,38)        -65.9186         estimate D2E/DX2                !
 ! D120  D(29,33,37,39)        171.2846         estimate D2E/DX2                !
 ! D121  D(34,33,37,26)        -66.0998         estimate D2E/DX2                !
 ! D122  D(34,33,37,38)        175.7471         estimate D2E/DX2                !
 ! D123  D(34,33,37,39)         52.9503         estimate D2E/DX2                !
 ! D124  D(35,33,37,26)        175.4783         estimate D2E/DX2                !
 ! D125  D(35,33,37,38)         57.3252         estimate D2E/DX2                !
 ! D126  D(35,33,37,39)        -65.4716         estimate D2E/DX2                !
 ! D127  D(26,37,39,40)        167.2762         estimate D2E/DX2                !
 ! D128  D(33,37,39,40)         49.336          estimate D2E/DX2                !
 ! D129  D(38,37,39,40)        -72.0543         estimate D2E/DX2                !
 ! D130  D(26,41,44,45)       -167.927          estimate D2E/DX2                !
 ! D131  D(42,41,44,45)         73.61           estimate D2E/DX2                !
 ! D132  D(43,41,44,45)        -49.6327         estimate D2E/DX2                !
 --------------------------------------------------------------------------------
 Trust Radius=3.00D-01 FncErr=1.00D-07 GrdErr=1.00D-06 EigMax=2.50D+02 EigMin=1.00D-04
 Number of steps in this run=    270 maximum allowed number of steps=    270.
 GradGradGradGradGradGradGradGradGradGradGradGradGradGradGradGradGradGrad

 Leave Link  103 at Thu Mar 16 18:57:56 2023, MaxMem=   262144000 cpu:               0.1 elap:               0.0
 (Enter /dragofs/sw/campus/0.2/software/gaussian/16.gaussian/gaussian/g16_legacy/l202.exe)
                          Input orientation:                          
 ---------------------------------------------------------------------
 Center     Atomic      Atomic             Coordinates (Angstroms)
 Number     Number       Type             X           Y           Z
 ---------------------------------------------------------------------
      1          6           0       -3.706226   -0.673540    0.308909
      2          1           0       -3.423694   -1.008571    1.314714
      3          8           0       -5.032048   -1.007203    0.140206
      4          1           0       -5.264375   -0.856903   -0.781450
      5          6           0       -2.271000    1.222386    0.477333
      6          1           0       -1.946439    0.893960    1.475952
      7          8           0       -3.579251    0.737403    0.212322
      8          6           0       -2.782592   -1.301844   -0.728451
      9          1           0       -3.110190   -0.956350   -1.723268
     10          8           0       -2.870996   -2.698977   -0.625405
     11          1           0       -2.190385   -3.046232   -1.212005
     12          6           0       -1.337296   -0.851554   -0.499834
     13          1           0       -1.051463   -1.166449    0.509248
     14          8           0       -0.512895   -1.516137   -1.437253
     15          1           0        0.088688   -2.073625   -0.920995
     16          6           0       -1.299030    0.679780   -0.568339
     17          1           0       -1.658234    0.978113   -1.563190
     18          8           0       -0.045995    1.338907   -0.362772
     19          6           0       -2.390408    2.735337    0.465141
     20          1           0       -1.431792    3.182021    0.725063
     21          1           0       -2.665892    3.053346   -0.550711
     22          8           0       -3.337019    3.161289    1.414252
     23          1           0       -4.124403    2.627457    1.263271
     24          6           0        1.126995    0.614739   -0.482684
     25          1           0        1.184309    0.120923   -1.461098
     26          6           0        2.334437   -1.188176    0.337332
     27          1           0        2.378313   -1.502604   -0.717749
     28          8           0        1.212899   -0.346278    0.544904
     29          6           0        2.287474    1.583053   -0.289210
     30          1           0        2.163652    2.050819    0.696390
     31          8           0        2.363940    2.550706   -1.313059
     32          1           0        1.533995    3.037252   -1.312106
     33          6           0        3.596602    0.808243   -0.322165
     34          1           0        3.726568    0.409549   -1.339843
     35          8           0        4.698309    1.619752    0.024625
     36          1           0        4.682888    2.384409   -0.560113
     37          6           0        3.584870   -0.375211    0.637872
     38          1           0        3.532762    0.003111    1.668336
     39          8           0        4.719206   -1.187425    0.447984
     40          1           0        5.483033   -0.600617    0.446246
     41          6           0        2.115811   -2.433948    1.153732
     42          1           0        3.013172   -3.056976    1.117278
     43          1           0        1.891310   -2.158763    2.189341
     44          8           0        1.002795   -3.082532    0.540654
     45          1           0        0.678795   -3.785509    1.107194
 ---------------------------------------------------------------------
                    Distance matrix (angstroms):
                    1          2          3          4          5
     1  C    0.000000
     2  H    1.097139   0.000000
     3  O    1.377532   1.991551   0.000000
     4  H    1.910584   2.793745   0.962297   0.000000
     5  C    2.383857   2.647089   3.564843   3.855940   0.000000
     6  H    2.629809   2.414105   3.862593   4.378365   1.100202
     7  O    1.419934   2.070722   2.271447   2.523695   1.420197
     8  C    1.524461   2.161375   2.429286   2.521910   2.843832
     9  H    2.136582   3.054562   2.677435   2.353173   3.208391
    10  O    2.381795   2.631921   2.849282   3.024211   4.117416
    11  H    3.200097   3.472380   3.749822   3.798415   4.591455
    12  C    2.509499   2.769530   3.753008   3.937167   2.475457
    13  H    2.707556   2.510215   4.000826   4.417052   2.682316
    14  O    3.735828   4.037784   4.813537   4.841614   3.775723
    15  H    4.227798   4.297623   5.337166   5.491372   4.288023
    16  C    2.897522   3.303122   4.157327   4.258024   1.527278
    17  H    3.229084   3.917409   4.269152   4.121002   2.144501
    18  O    4.230649   4.442236   5.533348   5.677003   2.381176
    19  C    3.657353   3.975714   4.592434   4.766326   1.517705
    20  H    4.495730   4.677224   5.554593   5.768118   2.146115
    21  H    3.963700   4.533569   4.750170   4.700575   2.136640
    22  O    4.007993   4.171948   4.676820   4.968066   2.402823
    23  H    3.461540   3.703288   3.910991   4.197759   2.455000
    24  C    5.064218   5.155050   6.399414   6.565409   3.582909
    25  H    5.261314   5.496779   6.517663   6.557712   4.112164
    26  C    6.062612   5.843253   7.371344   7.687871   5.200044
    27  H    6.225993   6.167516   7.476293   7.670180   5.519955
    28  O    4.935644   4.746497   6.292850   6.631367   3.821364
    29  C    6.432293   6.473525   7.776196   7.951485   4.636524
    30  H    6.482881   6.400049   7.838299   8.112610   4.516683
    31  O    7.062114   7.284940   8.334947   8.371714   5.143210
    32  H    6.622506   6.917192   7.847276   7.852635   4.579718
    33  C    7.478317   7.434026   8.829679   9.027766   5.936284
    34  H    7.690116   7.757834   8.995059   9.096854   6.319308
    35  O    8.716434   8.633617  10.079390  10.297507   6.995292
    36  H    8.971259   8.985764  10.313751  10.464375   7.126230
    37  C    7.304608   7.069599   8.654384   8.975279   6.072010
    38  H    7.396543   7.038525   8.758532   9.172279   6.048865
    39  O    8.442235   8.190850   9.757774  10.064425   7.393986
    40  H    9.190575   8.958261  10.527388  10.820337   7.965509
    41  C    6.140755   5.722214   7.358989   7.790966   5.750687
    42  H    7.175273   6.757824   8.359534   8.772871   6.829710
    43  H    6.088869   5.507920   7.311493   7.856479   5.629206
    44  O    5.294509   4.949170   6.394269   6.780767   5.408702
    45  H    5.435993   4.958313   6.424000   6.889483   5.846112
                    6          7          8          9         10
     6  H    0.000000
     7  O    2.070591   0.000000
     8  C    3.221816   2.382907   0.000000
     9  H    3.874658   2.614446   1.102881   0.000000
    10  O    4.263766   3.607232   1.403714   2.073467   0.000000
    11  H    4.775954   4.274757   1.904580   2.339880   0.963284
    12  C    2.705846   2.838717   1.530982   2.156601   2.404366
    13  H    2.445564   3.178448   2.132379   3.044113   2.635674
    14  O    4.043560   4.147539   2.387435   2.672285   2.760226
    15  H    4.323616   4.758157   2.979424   3.482063   3.039435
    16  C    2.155026   2.410842   2.480610   2.700201   3.726974
    17  H    3.053936   2.626917   2.675663   2.424036   3.983870
    18  O    2.681524   3.629936   3.820504   4.063059   4.934989
    19  C    2.146978   2.338590   4.228156   4.351525   5.563454
    20  H    2.462503   3.294031   4.903306   5.092883   6.203322
    21  H    3.047609   2.603850   4.360377   4.201185   5.756463
    22  O    2.660508   2.716346   4.981779   5.181740   6.222547
    23  H    2.791733   2.230244   4.605086   4.774067   5.788698
    24  C    3.655163   4.758869   4.361028   4.686268   5.194710
    25  H    4.361815   5.086441   4.277539   4.435310   5.009563
    26  C    4.894655   6.220546   5.228078   5.826129   5.505081
    27  H    5.409189   6.432358   5.164819   5.606525   5.384708
    28  O    3.519440   4.924396   4.300987   4.919948   4.856235
    29  C    4.638606   5.948539   5.849883   6.135134   6.712572
    30  H    4.340379   5.911034   6.142951   6.535382   7.046658
    31  O    5.394697   6.398154   6.455285   6.514124   7.445576
    32  H    4.947766   5.810204   6.148279   6.138922   7.264973
    33  C    5.828025   7.196080   6.731393   7.075163   7.363584
    34  H    6.351879   7.476075   6.758094   6.982403   7.328111
    35  O    6.840015   8.326570   8.066395   8.406193   8.738898
    36  H    7.093305   8.460037   8.327676   8.558368   9.105286
    37  C    5.736598   7.262481   6.577998   7.122958   6.976673
    38  H    5.554482   7.296567   6.879767   7.520130   7.319197
    39  O    7.058308   8.522024   7.594344   8.128172   7.813330
    40  H    7.647948   9.163515   8.378078   8.869995   8.679940
    41  C    5.261242   6.586156   5.368298   6.145853   5.301303
    42  H    6.351085   7.660046   6.330725   7.069434   6.147238
    43  H    4.955437   6.497955   5.576126   6.462918   5.558254
    44  O    5.038378   5.974517   4.371571   5.153895   4.063627
    45  H    5.378221   6.276025   4.638899   5.511085   4.096763
                   11         12         13         14         15
    11  H    0.000000
    12  C    2.459992   0.000000
    13  H    2.791673   1.095037   0.000000
    14  O    2.281644   1.414235   2.049684   0.000000
    15  H    2.494960   1.924647   2.041692   0.969132   0.000000
    16  C    3.884840   1.533343   2.151986   2.488990   3.103444
    17  H    4.074539   2.140423   3.043405   2.747534   3.574529
    18  O    4.954700   2.546441   2.836934   3.086062   3.460510
    19  C    6.023236   3.860830   4.125367   5.021871   5.585106
    20  H    6.566493   4.216519   4.370402   5.252873   5.713421
    21  H    6.153720   4.125045   4.640750   5.128502   5.831865
    22  O    6.837054   4.874990   4.977159   6.163203   6.677812
    23  H    6.485227   4.793748   4.940165   6.124148   6.679920
    24  C    4.993959   2.867584   2.983662   2.853257   2.915047
    25  H    4.634812   2.868489   3.246270   2.358185   2.511601
    26  C    5.130968   3.780977   3.390331   3.371055   2.722278
    27  H    4.847688   3.778505   3.658126   2.979422   2.368492
    28  O    4.686024   2.801834   2.408586   2.876783   2.529118
    29  C    6.506385   4.371571   4.398386   4.331864   4.313364
    30  H    6.969902   4.702272   4.552230   4.943633   4.892080
    31  O    7.216495   5.092726   5.366845   4.983053   5.168648
    32  H    7.133709   4.901725   5.260516   4.993873   5.325687
    33  C    7.009851   5.208631   5.118121   4.851199   4.579216
    34  H    6.853400   5.285709   5.360269   4.657338   4.424450
    35  O    8.411585   6.543007   6.407625   6.255201   5.981959
    36  H    8.784003   6.835035   6.828976   6.555898   6.411784
    37  C    6.626460   5.074347   4.705123   4.732815   4.187835
    38  H    7.095722   5.398970   4.870983   5.321667   4.783212
    39  O    7.345282   6.139412   5.771032   5.571091   4.909292
    40  H    8.222662   6.890205   6.559251   6.351134   5.756567
    41  C    4.951255   4.142728   3.471821   3.803377   2.922936
    42  H    5.701112   5.138629   4.523831   4.618762   3.697856
    43  H    5.386742   4.400495   3.530908   4.398335   3.595954
    44  O    3.642737   3.396455   2.809330   2.943302   1.997474
    45  H    3.762633   3.905797   3.195435   3.611701   2.718883
                   16         17         18         19         20
    16  C    0.000000
    17  H    1.098981   0.000000
    18  O    1.430665   2.042178   0.000000
    19  C    2.546468   2.781734   2.851619   0.000000
    20  H    2.819880   3.185057   2.549684   1.089050   0.000000
    21  H    2.739058   2.519341   3.136636   1.099535   1.779651
    22  O    3.773851   4.055828   4.160496   1.406527   2.026154
    23  H    3.889855   4.097708   4.575783   1.911907   2.801315
    24  C    2.428408   3.009491   1.383728   4.215143   3.820600
    25  H    2.697464   2.970732   2.050232   4.829509   4.581878
    26  C    4.184684   4.924044   3.541575   6.142837   5.782166
    27  H    4.278782   4.812737   3.751994   6.488457   6.208407
    28  O    2.932898   3.800194   2.290969   4.741997   4.413133
    29  C    3.709020   4.190178   2.347359   4.876411   4.173534
    30  H    3.933123   4.567627   2.551702   4.611020   3.769305
    31  O    4.179991   4.325910   2.859946   5.079361   4.354318
    32  H    3.759906   3.807023   2.506388   4.318645   3.600959
    33  C    4.903500   5.402064   3.681272   6.338598   5.658291
    34  H    5.091648   5.419340   4.006321   6.788568   6.209599
    35  O    6.099445   6.583198   4.768372   7.189471   6.364702
    36  H    6.220062   6.572188   4.847097   7.155824   6.298982
    37  C    5.140081   5.845195   4.137955   6.738642   6.150480
    38  H    5.367198   6.191916   4.326344   6.632999   5.970095
    39  O    6.382674   7.028948   5.454064   8.120035   7.550073
    40  H    6.976043   7.584716   5.914931   8.551024   7.886754
    41  C    4.931731   5.767776   4.605174   6.892146   6.656452
    42  H    5.949768   6.729702   5.556333   7.948261   7.670503
    43  H    5.083345   6.043239   4.743430   6.727421   6.458412
    44  O    4.547885   5.291132   4.633062   6.735512   6.723529
    45  H    5.163139   5.940097   5.380126   7.235584   7.290204
                   21         22         23         24         25
    21  H    0.000000
    22  O    2.079217   0.000000
    23  H    2.366256   0.963195   0.000000
    24  C    4.509703   5.478203   5.888682   0.000000
    25  H    4.924628   6.160671   6.472042   1.097467   0.000000
    26  C    6.616828   7.227933   7.558640   2.319665   2.504174
    27  H    6.799161   7.678694   7.954066   2.470667   2.148035
    28  O    5.272839   5.810383   6.151906   1.409564   2.059888
    29  C    5.173585   6.085025   6.679307   1.523737   2.174424
    30  H    5.087712   5.657371   6.339834   2.127722   3.055874
    31  O    5.112048   6.349171   6.981544   2.442852   2.705049
    32  H    4.268376   5.583475   6.230407   2.592713   2.940995
    33  C    6.656692   7.525096   8.089318   2.482372   2.754766
    34  H    6.962466   8.065443   8.563473   2.744923   2.561462
    35  O    7.524471   8.299030   8.966045   3.744556   4.099031
    36  H    7.379169   8.295816   8.997343   3.972669   4.263238
    37  C    7.227708   7.811667   8.296989   2.876942   3.227153
    38  H    7.256129   7.565219   8.104532   3.284614   3.914392
    39  O    8.574451   9.205854   9.665787   4.125278   4.225147
    40  H    8.986120   9.637546  10.168128   4.616824   4.757900
    41  C    7.475306   7.817154   8.035552   3.598626   3.772585
    42  H    8.507055   8.892690   9.125737   4.427080   4.482388
    43  H    7.445942   7.499276   7.743017   3.926348   4.361482
    44  O    7.231828   7.653918   7.708068   3.838289   3.781809
    45  H    7.791375   8.029885   8.013813   4.700083   4.702327
                   26         27         28         29         30
    26  C    0.000000
    27  H    1.101810   0.000000
    28  O    1.417648   2.071128   0.000000
    29  C    2.841561   3.116597   2.360673   0.000000
    30  H    3.263308   3.830494   2.583206   1.097973   0.000000
    31  O    4.087040   4.096819   3.628972   1.410839   2.080358
    32  H    4.606039   4.655795   3.872966   1.930995   2.324559
    33  C    2.452282   2.642107   2.786892   1.521589   2.152857
    34  H    2.702530   2.420975   3.231420   2.133526   3.046755
    35  O    3.683767   3.960127   4.035350   2.431453   2.657362
    36  H    4.368523   4.521591   4.551762   2.540387   2.834895
    37  C    1.521453   2.136470   2.373969   2.525374   2.812278
    38  H    2.150981   3.048497   2.601141   2.806946   2.648065
    39  O    2.387335   2.634018   3.607092   3.759298   4.132649
    40  H    3.204800   3.436241   4.278839   3.939658   4.255699
    41  C    1.505408   2.106834   2.354631   4.271750   4.508280
    42  H    2.135746   2.487256   3.304009   4.902521   5.195036
    43  H    2.137367   3.019750   2.539590   4.505702   4.474780
    44  O    2.324477   2.443727   2.744312   4.909863   5.265276
    45  H    3.174898   3.380892   3.525585   5.775747   6.036248
                   31         32         33         34         35
    31  O    0.000000
    32  H    0.962048   0.000000
    33  C    2.353190   3.194184   0.000000
    34  H    2.538115   3.422421   1.100689   0.000000
    35  O    2.846990   3.716052   1.411584   2.066554   0.000000
    36  H    2.443788   3.302609   1.928973   2.328647   0.962734
    37  C    3.722606   4.433216   1.523933   2.132436   2.365522
    38  H    4.092078   4.699374   2.148117   3.041693   2.583373
    39  O    4.756277   5.575965   2.415794   2.594606   2.838998
    40  H    4.770192   5.649849   2.476684   2.701059   2.392404
    41  C    5.567172   6.029336   3.857825   4.110709   4.937273
    42  H    6.146067   6.725287   4.165610   4.308500   5.089731
    43  H    5.888063   6.275857   4.244857   4.734927   5.180967
    44  O    6.084598   6.416124   4.755042   4.811428   6.002881
    45  H    6.988917   7.289338   5.626653   5.733709   6.822411
                   36         37         38         39         40
    36  H    0.000000
    37  C    3.202548   0.000000
    38  H    3.458230   1.098954   0.000000
    39  O    3.711546   1.408001   2.077086   0.000000
    40  H    3.250134   1.921081   2.379401   0.963213   0.000000
    41  C    5.722212   2.581210   2.865628   2.971458   3.898695
    42  H    5.933824   2.783619   3.152423   2.617962   3.547421
    43  H    5.999401   2.907965   2.763966   3.460176   4.285636
    44  O    6.681483   3.742479   4.146516   4.172736   5.122631
    45  H    7.541920   4.505071   4.776364   4.848662   5.801818
                   41         42         43         44         45
    41  C    0.000000
    42  H    1.093046   0.000000
    43  H    1.094812   1.792953   0.000000
    44  O    1.426650   2.091594   2.088295   0.000000
    45  H    1.973296   2.445440   2.299465   0.959229   0.000000
 Stoichiometry    C12H22O11
 Framework group  C1[X(C12H22O11)]
 Deg. of freedom   129
 Full point group                 C1      NOp   1
 Largest Abelian subgroup         C1      NOp   1
 Largest concise Abelian subgroup C1      NOp   1
                         Standard orientation:                         
 ---------------------------------------------------------------------
 Center     Atomic      Atomic             Coordinates (Angstroms)
 Number     Number       Type             X           Y           Z
 ---------------------------------------------------------------------
      1          6           0        3.706226   -0.673540   -0.308909
      2          1           0        3.423694   -1.008571   -1.314714
      3          8           0        5.032048   -1.007203   -0.140206
      4          1           0        5.264375   -0.856903    0.781450
      5          6           0        2.271000    1.222386   -0.477333
      6          1           0        1.946439    0.893960   -1.475952
      7          8           0        3.579251    0.737403   -0.212322
      8          6           0        2.782592   -1.301844    0.728451
      9          1           0        3.110190   -0.956350    1.723268
     10          8           0        2.870996   -2.698977    0.625405
     11          1           0        2.190385   -3.046232    1.212005
     12          6           0        1.337296   -0.851554    0.499834
     13          1           0        1.051463   -1.166449   -0.509248
     14          8           0        0.512895   -1.516137    1.437253
     15          1           0       -0.088688   -2.073625    0.920995
     16          6           0        1.299030    0.679780    0.568339
     17          1           0        1.658234    0.978113    1.563190
     18          8           0        0.045995    1.338907    0.362772
     19          6           0        2.390408    2.735337   -0.465141
     20          1           0        1.431792    3.182021   -0.725063
     21          1           0        2.665892    3.053346    0.550711
     22          8           0        3.337019    3.161289   -1.414252
     23          1           0        4.124403    2.627457   -1.263271
     24          6           0       -1.126995    0.614739    0.482684
     25          1           0       -1.184309    0.120923    1.461098
     26          6           0       -2.334437   -1.188176   -0.337332
     27          1           0       -2.378313   -1.502604    0.717749
     28          8           0       -1.212899   -0.346278   -0.544904
     29          6           0       -2.287474    1.583053    0.289210
     30          1           0       -2.163652    2.050819   -0.696390
     31          8           0       -2.363940    2.550706    1.313059
     32          1           0       -1.533995    3.037252    1.312106
     33          6           0       -3.596602    0.808243    0.322165
     34          1           0       -3.726568    0.409549    1.339843
     35          8           0       -4.698309    1.619752   -0.024625
     36          1           0       -4.682888    2.384409    0.560113
     37          6           0       -3.584870   -0.375211   -0.637872
     38          1           0       -3.532762    0.003111   -1.668336
     39          8           0       -4.719206   -1.187425   -0.447984
     40          1           0       -5.483033   -0.600617   -0.446246
     41          6           0       -2.115811   -2.433948   -1.153732
     42          1           0       -3.013172   -3.056976   -1.117278
     43          1           0       -1.891310   -2.158763   -2.189341
     44          8           0       -1.002795   -3.082532   -0.540654
     45          1           0       -0.678795   -3.785509   -1.107194
 ---------------------------------------------------------------------
 Rotational constants (GHZ):           0.4011570           0.1636736           0.1276342
 Leave Link  202 at Thu Mar 16 18:57:56 2023, MaxMem=   262144000 cpu:               0.0 elap:               0.0
 (Enter /dragofs/sw/campus/0.2/software/gaussian/16.gaussian/gaussian/g16_legacy/l301.exe)
 Standard basis: 6-311G(d,p) (5D, 7F)
 Ernie: Thresh=  0.10000D-02 Tol=  0.10000D-05 Strict=F.
 There are   569 symmetry adapted cartesian basis functions of A   symmetry.
 There are   546 symmetry adapted basis functions of A   symmetry.
   546 basis functions,   912 primitive gaussians,   569 cartesian basis functions
    91 alpha electrons       91 beta electrons
       nuclear repulsion energy      2346.7820686658 Hartrees.
 IExCor= 4336 DFT=T Ex+Corr=M062X ExCW=0 ScaHFX=  0.540000
 ScaDFX=  1.000000  1.000000  1.000000  1.000000 ScalE2=  1.000000  1.000000
 IRadAn=      5 IRanWt=     -1 IRanGd=            0 ICorTp=0 IEmpDi=  4
 NAtoms=   45 NActive=   45 NUniq=   45 SFac= 1.00D+00 NAtFMM=   60 NAOKFM=F Big=F
 Integral buffers will be    131072 words long.
 Raffenetti 2 integral format.
 Two-electron integral symmetry is turned on.
 Leave Link  301 at Thu Mar 16 18:57:56 2023, MaxMem=   262144000 cpu:               0.4 elap:               0.1
 (Enter /dragofs/sw/campus/0.2/software/gaussian/16.gaussian/gaussian/g16_legacy/l302.exe)
 NPDir=0 NMtPBC=     1 NCelOv=     1 NCel=       1 NClECP=     1 NCelD=      1
         NCelK=      1 NCelE2=     1 NClLst=     1 CellRange=     0.0.
 One-electron integrals computed using PRISM.
 One-electron integral symmetry used in STVInt
 NBasis=   546 RedAO= T EigKep=  6.33D-04  NBF=   546
 NBsUse=   546 1.00D-06 EigRej= -1.00D+00 NBFU=   546
 Precomputing XC quadrature grid using
 IXCGrd= 4 IRadAn=           5 IRanWt=          -1 IRanGd=           0 AccXCQ= 0.00D+00.
 Generated NRdTot=       0 NPtTot=           0 NUsed=           0 NTot=          32
 NSgBfM=   561   560   560   560   561 MxSgAt=    45 MxSgA2=    45.
 Leave Link  302 at Thu Mar 16 18:57:57 2023, MaxMem=   262144000 cpu:               5.9 elap:               0.8
 (Enter /dragofs/sw/campus/0.2/software/gaussian/16.gaussian/gaussian/g16_legacy/l303.exe)
 DipDrv:  MaxL=1.
 Leave Link  303 at Thu Mar 16 18:57:57 2023, MaxMem=   262144000 cpu:               0.4 elap:               0.1
 (Enter /dragofs/sw/campus/0.2/software/gaussian/16.gaussian/gaussian/g16_legacy/l401.exe)
 ExpMin= 1.03D-01 ExpMax= 8.59D+03 ExpMxC= 1.30D+03 IAcc=3 IRadAn=         5 AccDes= 0.00D+00
 Harris functional with IExCor= 1009 and IRadAn=       5 diagonalized for initial guess.
 HarFok:  IExCor= 1009 AccDes= 0.00D+00 IRadAn=         5 IDoV= 1 UseB2=F ITyADJ=14
 ICtDFT=  3500011 ScaDFX=  1.000000  1.000000  1.000000  1.000000
 FoFCou: FMM=F IPFlag=           0 FMFlag=      100000 FMFlg1=           0
         NFxFlg=           0 DoJE=T BraDBF=F KetDBF=T FulRan=T
         wScrn=  0.000000 ICntrl=       500 IOpCl=  0 I1Cent=   200000004 NGrid=           0
         NMat0=    1 NMatS0=      1 NMatT0=    0 NMatD0=    1 NMtDS0=    0 NMtDT0=    0
 Petite list used in FoFCou.
 Harris En= -1297.11397827098    
 JPrj=0 DoOrth=F DoCkMO=F.
 Leave Link  401 at Thu Mar 16 18:58:02 2023, MaxMem=   262144000 cpu:              36.2 elap:               4.6
 (Enter /dragofs/sw/campus/0.2/software/gaussian/16.gaussian/gaussian/g16_legacy/l502.exe)
 Integral symmetry usage will be decided dynamically.
 Closed shell SCF:
 Using DIIS extrapolation, IDIIS=  1040.
 NGot=   262144000 LenX=   261486196 LenY=   261161866
 Requested convergence on RMS density matrix=1.00D-08 within 128 cycles.
 Requested convergence on MAX density matrix=1.00D-06.
 Requested convergence on             energy=1.00D-06.
 No special actions if energy rises.
 Fock matrices will be formed incrementally for  20 cycles.
 Integral accuracy reduced to 1.0D-05 until final iterations.

 Cycle   1  Pass 0  IDiag  1:
 FoFJK:  IHMeth= 1 ICntrl=       0 DoSepK=F KAlg= 0 I1Cent=           0 FoldK=F
 IRaf= 750000000 NMat=       1 IRICut=       1 DoRegI=T DoRafI=F ISym2E= 0 IDoP0=0 IntGTp=1.
 FoFCou: FMM=F IPFlag=           0 FMFlag=      100000 FMFlg1=           0
         NFxFlg=           0 DoJE=F BraDBF=F KetDBF=F FulRan=T
         wScrn=  0.000000 ICntrl=         0 IOpCl=  0 I1Cent=           0 NGrid=           0
         NMat0=    1 NMatS0=      1 NMatT0=    0 NMatD0=    1 NMtDS0=    0 NMtDT0=    0
 Symmetry not used in FoFCou.
 E= -1297.34412488058    
 DIIS: error= 1.96D-02 at cycle   1 NSaved=   1.
 NSaved= 1 IEnMin= 1 EnMin= -1297.34412488058     IErMin= 1 ErrMin= 1.96D-02
 ErrMax= 1.96D-02  0.00D+00 EMaxC= 1.00D-01 BMatC= 8.41D-01 BMatP= 8.41D-01
 IDIUse=3 WtCom= 8.04D-01 WtEn= 1.96D-01
 Coeff-Com:  0.100D+01
 Coeff-En:   0.100D+01
 Coeff:      0.100D+01
 Gap=     0.419 Goal=   None    Shift=    0.000
 GapD=    0.419 DampG=2.000 DampE=0.500 DampFc=1.0000 IDamp=-1.
 RMSDP=2.45D-03 MaxDP=1.72D-01              OVMax= 1.08D-01

 Cycle   2  Pass 0  IDiag  1:
 RMSU=  2.44D-03    CP:  1.02D+00
 E= -1297.43977365183     Delta-E=       -0.095648771258 Rises=F Damp=F
 DIIS: error= 2.09D-02 at cycle   2 NSaved=   2.
 NSaved= 2 IEnMin= 2 EnMin= -1297.43977365183     IErMin= 1 ErrMin= 1.96D-02
 ErrMax= 2.09D-02  0.00D+00 EMaxC= 1.00D-01 BMatC= 5.81D-01 BMatP= 8.41D-01
 IDIUse=3 WtCom= 7.91D-01 WtEn= 2.09D-01
 Coeff-Com:  0.449D+00 0.551D+00
 Coeff-En:   0.438D+00 0.562D+00
 Coeff:      0.447D+00 0.553D+00
 Gap=     0.395 Goal=   None    Shift=    0.000
 RMSDP=1.36D-03 MaxDP=8.70D-02 DE=-9.56D-02 OVMax= 5.64D-02

 Cycle   3  Pass 0  IDiag  1:
 RMSU=  4.50D-04    CP:  1.01D+00  4.75D-01
 E= -1297.81128078058     Delta-E=       -0.371507128742 Rises=F Damp=F
 DIIS: error= 3.24D-03 at cycle   3 NSaved=   3.
 NSaved= 3 IEnMin= 3 EnMin= -1297.81128078058     IErMin= 3 ErrMin= 3.24D-03
 ErrMax= 3.24D-03  0.00D+00 EMaxC= 1.00D-01 BMatC= 2.19D-02 BMatP= 5.81D-01
 IDIUse=3 WtCom= 9.68D-01 WtEn= 3.24D-02
 Coeff-Com:  0.626D-01 0.188D+00 0.750D+00
 Coeff-En:   0.000D+00 0.000D+00 0.100D+01
 Coeff:      0.605D-01 0.182D+00 0.758D+00
 Gap=     0.385 Goal=   None    Shift=    0.000
 RMSDP=2.56D-04 MaxDP=1.24D-02 DE=-3.72D-01 OVMax= 1.28D-02

 Cycle   4  Pass 0  IDiag  1:
 RMSU=  1.83D-04    CP:  1.01D+00  5.26D-01  7.24D-01
 E= -1297.82376555909     Delta-E=       -0.012484778512 Rises=F Damp=F
 DIIS: error= 1.29D-03 at cycle   4 NSaved=   4.
 NSaved= 4 IEnMin= 4 EnMin= -1297.82376555909     IErMin= 4 ErrMin= 1.29D-03
 ErrMax= 1.29D-03  0.00D+00 EMaxC= 1.00D-01 BMatC= 2.62D-03 BMatP= 2.19D-02
 IDIUse=3 WtCom= 9.87D-01 WtEn= 1.29D-02
 Coeff-Com:  0.296D-02 0.500D-01 0.350D+00 0.597D+00
 Coeff-En:   0.000D+00 0.000D+00 0.451D-01 0.955D+00
 Coeff:      0.292D-02 0.493D-01 0.346D+00 0.602D+00
 Gap=     0.376 Goal=   None    Shift=    0.000
 RMSDP=9.91D-05 MaxDP=4.04D-03 DE=-1.25D-02 OVMax= 4.52D-03

 Cycle   5  Pass 0  IDiag  1:
 RMSU=  3.60D-05    CP:  1.01D+00  5.21D-01  8.12D-01  5.55D-01
 E= -1297.82605741594     Delta-E=       -0.002291856856 Rises=F Damp=F
 DIIS: error= 1.34D-04 at cycle   5 NSaved=   5.
 NSaved= 5 IEnMin= 5 EnMin= -1297.82605741594     IErMin= 5 ErrMin= 1.34D-04
 ErrMax= 1.34D-04  0.00D+00 EMaxC= 1.00D-01 BMatC= 3.76D-05 BMatP= 2.62D-03
 IDIUse=3 WtCom= 9.99D-01 WtEn= 1.34D-03
 Coeff-Com: -0.184D-02 0.601D-02 0.590D-01 0.163D+00 0.774D+00
 Coeff-En:   0.000D+00 0.000D+00 0.000D+00 0.000D+00 0.100D+01
 Coeff:     -0.184D-02 0.600D-02 0.589D-01 0.163D+00 0.774D+00
 Gap=     0.376 Goal=   None    Shift=    0.000
 RMSDP=1.47D-05 MaxDP=6.92D-04 DE=-2.29D-03 OVMax= 6.00D-04

 Cycle   6  Pass 0  IDiag  1:
 RMSU=  9.80D-06    CP:  1.01D+00  5.22D-01  8.13D-01  6.02D-01  8.33D-01
 E= -1297.82608311603     Delta-E=       -0.000025700082 Rises=F Damp=F
 DIIS: error= 5.59D-05 at cycle   6 NSaved=   6.
 NSaved= 6 IEnMin= 6 EnMin= -1297.82608311603     IErMin= 6 ErrMin= 5.59D-05
 ErrMax= 5.59D-05  0.00D+00 EMaxC= 1.00D-01 BMatC= 5.94D-06 BMatP= 3.76D-05
 IDIUse=1 WtCom= 1.00D+00 WtEn= 0.00D+00
 Coeff-Com: -0.101D-02 0.441D-03 0.108D-01 0.488D-01 0.353D+00 0.588D+00
 Coeff:     -0.101D-02 0.441D-03 0.108D-01 0.488D-01 0.353D+00 0.588D+00
 Gap=     0.376 Goal=   None    Shift=    0.000
 RMSDP=4.48D-06 MaxDP=2.21D-04 DE=-2.57D-05 OVMax= 2.72D-04

 Initial convergence to 1.0D-05 achieved.  Increase integral accuracy.
 Cycle   7  Pass 1  IDiag  1:
 E= -1297.82597580104     Delta-E=        0.000107314987 Rises=F Damp=F
 DIIS: error= 4.02D-05 at cycle   1 NSaved=   1.
 NSaved= 1 IEnMin= 1 EnMin= -1297.82597580104     IErMin= 1 ErrMin= 4.02D-05
 ErrMax= 4.02D-05  0.00D+00 EMaxC= 1.00D-01 BMatC= 1.24D-06 BMatP= 1.24D-06
 IDIUse=1 WtCom= 1.00D+00 WtEn= 0.00D+00
 Coeff-Com:  0.100D+01
 Coeff:      0.100D+01
 Gap=     0.376 Goal=   None    Shift=    0.000
 RMSDP=4.48D-06 MaxDP=2.21D-04 DE= 1.07D-04 OVMax= 1.44D-04

 Cycle   8  Pass 1  IDiag  1:
 RMSU=  1.56D-05    CP:  1.00D+00
 E= -1297.82597649815     Delta-E=       -0.000000697113 Rises=F Damp=F
 DIIS: error= 2.23D-05 at cycle   2 NSaved=   2.
 NSaved= 2 IEnMin= 2 EnMin= -1297.82597649815     IErMin= 2 ErrMin= 2.23D-05
 ErrMax= 2.23D-05  0.00D+00 EMaxC= 1.00D-01 BMatC= 6.54D-07 BMatP= 1.24D-06
 IDIUse=1 WtCom= 1.00D+00 WtEn= 0.00D+00
 Coeff-Com:  0.396D+00 0.604D+00
 Coeff:      0.396D+00 0.604D+00
 Gap=     0.376 Goal=   None    Shift=    0.000
 RMSDP=1.57D-06 MaxDP=9.90D-05 DE=-6.97D-07 OVMax= 1.01D-04

 Cycle   9  Pass 1  IDiag  1:
 RMSU=  1.56D-06    CP:  1.00D+00  1.01D+00
 E= -1297.82597685555     Delta-E=       -0.000000357394 Rises=F Damp=F
 DIIS: error= 9.17D-06 at cycle   3 NSaved=   3.
 NSaved= 3 IEnMin= 3 EnMin= -1297.82597685555     IErMin= 3 ErrMin= 9.17D-06
 ErrMax= 9.17D-06  0.00D+00 EMaxC= 1.00D-01 BMatC= 1.15D-07 BMatP= 6.54D-07
 IDIUse=1 WtCom= 1.00D+00 WtEn= 0.00D+00
 Coeff-Com: -0.222D-01 0.288D+00 0.735D+00
 Coeff:     -0.222D-01 0.288D+00 0.735D+00
 Gap=     0.376 Goal=   None    Shift=    0.000
 RMSDP=5.84D-07 MaxDP=3.19D-05 DE=-3.57D-07 OVMax= 3.27D-05

 Cycle  10  Pass 1  IDiag  1:
 RMSU=  2.72D-07    CP:  1.00D+00  1.03D+00  7.27D-01
 E= -1297.82597693312     Delta-E=       -0.000000077570 Rises=F Damp=F
 DIIS: error= 5.77D-07 at cycle   4 NSaved=   4.
 NSaved= 4 IEnMin= 4 EnMin= -1297.82597693312     IErMin= 4 ErrMin= 5.77D-07
 ErrMax= 5.77D-07  0.00D+00 EMaxC= 1.00D-01 BMatC= 7.61D-10 BMatP= 1.15D-07
 IDIUse=1 WtCom= 1.00D+00 WtEn= 0.00D+00
 Coeff-Com: -0.107D-01 0.682D-01 0.197D+00 0.746D+00
 Coeff:     -0.107D-01 0.682D-01 0.197D+00 0.746D+00
 Gap=     0.376 Goal=   None    Shift=    0.000
 RMSDP=7.65D-08 MaxDP=2.67D-06 DE=-7.76D-08 OVMax= 3.48D-06

 Cycle  11  Pass 1  IDiag  1:
 RMSU=  7.04D-08    CP:  1.00D+00  1.03D+00  7.42D-01  9.44D-01
 E= -1297.82597693368     Delta-E=       -0.000000000561 Rises=F Damp=F
 DIIS: error= 3.41D-07 at cycle   5 NSaved=   5.
 NSaved= 5 IEnMin= 5 EnMin= -1297.82597693368     IErMin= 5 ErrMin= 3.41D-07
 ErrMax= 3.41D-07  0.00D+00 EMaxC= 1.00D-01 BMatC= 1.70D-10 BMatP= 7.61D-10
 IDIUse=1 WtCom= 1.00D+00 WtEn= 0.00D+00
 Coeff-Com: -0.115D-02-0.101D-01-0.187D-01 0.293D+00 0.737D+00
 Coeff:     -0.115D-02-0.101D-01-0.187D-01 0.293D+00 0.737D+00
 Gap=     0.376 Goal=   None    Shift=    0.000
 RMSDP=2.97D-08 MaxDP=1.48D-06 DE=-5.61D-10 OVMax= 1.57D-06

 Cycle  12  Pass 1  IDiag  1:
 RMSU=  1.99D-08    CP:  1.00D+00  1.03D+00  7.42D-01  1.02D+00  9.28D-01
 E= -1297.82597693377     Delta-E=       -0.000000000090 Rises=F Damp=F
 DIIS: error= 1.89D-07 at cycle   6 NSaved=   6.
 NSaved= 6 IEnMin= 6 EnMin= -1297.82597693377     IErMin= 6 ErrMin= 1.89D-07
 ErrMax= 1.89D-07  0.00D+00 EMaxC= 1.00D-01 BMatC= 2.01D-11 BMatP= 1.70D-10
 IDIUse=1 WtCom= 1.00D+00 WtEn= 0.00D+00
 Coeff-Com:  0.755D-03-0.123D-01-0.319D-01 0.394D-01 0.310D+00 0.694D+00
 Coeff:      0.755D-03-0.123D-01-0.319D-01 0.394D-01 0.310D+00 0.694D+00
 Gap=     0.376 Goal=   None    Shift=    0.000
 RMSDP=9.22D-09 MaxDP=5.18D-07 DE=-8.96D-11 OVMax= 5.47D-07

 SCF Done:  E(RM062X) =  -1297.82597693     A.U. after   12 cycles
            NFock= 12  Conv=0.92D-08     -V/T= 2.0029
 KE= 1.294082609369D+03 PE=-7.741832931552D+03 EE= 2.803142276584D+03
 Leave Link  502 at Thu Mar 16 19:00:44 2023, MaxMem=   262144000 cpu:            1297.1 elap:             162.5
 (Enter /dragofs/sw/campus/0.2/software/gaussian/16.gaussian/gaussian/g16_legacy/l601.exe)
 Copying SCF densities to generalized density rwf, IOpCl= 0 IROHF=0.

 **********************************************************************

            Population analysis using the SCF density.

 **********************************************************************

 Orbital symmetries:
       Occupied  (A) (A) (A) (A) (A) (A) (A) (A) (A) (A) (A) (A)
                 (A) (A) (A) (A) (A) (A) (A) (A) (A) (A) (A) (A)
                 (A) (A) (A) (A) (A) (A) (A) (A) (A) (A) (A) (A)
                 (A) (A) (A) (A) (A) (A) (A) (A) (A) (A) (A) (A)
                 (A) (A) (A) (A) (A) (A) (A) (A) (A) (A) (A) (A)
                 (A) (A) (A) (A) (A) (A) (A) (A) (A) (A) (A) (A)
                 (A) (A) (A) (A) (A) (A) (A) (A) (A) (A) (A) (A)
                 (A) (A) (A) (A) (A) (A) (A)
       Virtual   (A) (A) (A) (A) (A) (A) (A) (A) (A) (A) (A) (A)
                 (A) (A) (A) (A) (A) (A) (A) (A) (A) (A) (A) (A)
                 (A) (A) (A) (A) (A) (A) (A) (A) (A) (A) (A) (A)
                 (A) (A) (A) (A) (A) (A) (A) (A) (A) (A) (A) (A)
                 (A) (A) (A) (A) (A) (A) (A) (A) (A) (A) (A) (A)
                 (A) (A) (A) (A) (A) (A) (A) (A) (A) (A) (A) (A)
                 (A) (A) (A) (A) (A) (A) (A) (A) (A) (A) (A) (A)
                 (A) (A) (A) (A) (A) (A) (A) (A) (A) (A) (A) (A)
                 (A) (A) (A) (A) (A) (A) (A) (A) (A) (A) (A) (A)
                 (A) (A) (A) (A) (A) (A) (A) (A) (A) (A) (A) (A)
                 (A) (A) (A) (A) (A) (A) (A) (A) (A) (A) (A) (A)
                 (A) (A) (A) (A) (A) (A) (A) (A) (A) (A) (A) (A)
                 (A) (A) (A) (A) (A) (A) (A) (A) (A) (A) (A) (A)
                 (A) (A) (A) (A) (A) (A) (A) (A) (A) (A) (A) (A)
                 (A) (A) (A) (A) (A) (A) (A) (A) (A) (A) (A) (A)
                 (A) (A) (A) (A) (A) (A) (A) (A) (A) (A) (A) (A)
                 (A) (A) (A) (A) (A) (A) (A) (A) (A) (A) (A) (A)
                 (A) (A) (A) (A) (A) (A) (A) (A) (A) (A) (A) (A)
                 (A) (A) (A) (A) (A) (A) (A) (A) (A) (A) (A) (A)
                 (A) (A) (A) (A) (A) (A) (A) (A) (A) (A) (A) (A)
                 (A) (A) (A) (A) (A) (A) (A) (A) (A) (A) (A) (A)
                 (A) (A) (A) (A) (A) (A) (A) (A) (A) (A) (A) (A)
                 (A) (A) (A) (A) (A) (A) (A) (A) (A) (A) (A) (A)
                 (A) (A) (A) (A) (A) (A) (A) (A) (A) (A) (A) (A)
                 (A) (A) (A) (A) (A) (A) (A) (A) (A) (A) (A) (A)
                 (A) (A) (A) (A) (A) (A) (A) (A) (A) (A) (A) (A)
                 (A) (A) (A) (A) (A) (A) (A) (A) (A) (A) (A) (A)
                 (A) (A) (A) (A) (A) (A) (A) (A) (A) (A) (A) (A)
                 (A) (A) (A) (A) (A) (A) (A) (A) (A) (A) (A) (A)
                 (A) (A) (A) (A) (A) (A) (A) (A) (A) (A) (A) (A)
                 (A) (A) (A) (A) (A) (A) (A) (A) (A) (A) (A) (A)
                 (A) (A) (A) (A) (A) (A) (A) (A) (A) (A) (A) (A)
                 (A) (A) (A) (A) (A) (A) (A) (A) (A) (A) (A) (A)
                 (A) (A) (A) (A) (A) (A) (A) (A) (A) (A) (A) (A)
                 (A) (A) (A) (A) (A) (A) (A) (A) (A) (A) (A) (A)
                 (A) (A) (A) (A) (A) (A) (A) (A) (A) (A) (A) (A)
                 (A) (A) (A) (A) (A) (A) (A) (A) (A) (A) (A) (A)
                 (A) (A) (A) (A) (A) (A) (A) (A) (A) (A) (A)
 The electronic state is 1-A.
 Alpha  occ. eigenvalues --  -19.65359 -19.65059 -19.64865 -19.63929 -19.63586
 Alpha  occ. eigenvalues --  -19.63249 -19.63015 -19.62856 -19.62841 -19.62058
 Alpha  occ. eigenvalues --  -19.60447 -10.65187 -10.64651 -10.61143 -10.60829
 Alpha  occ. eigenvalues --  -10.60668 -10.60517 -10.60337 -10.60142 -10.60042
 Alpha  occ. eigenvalues --  -10.59973 -10.59572 -10.58117  -1.23152  -1.21254
 Alpha  occ. eigenvalues --   -1.18213  -1.18089  -1.17078  -1.16702  -1.15926
 Alpha  occ. eigenvalues --   -1.15039  -1.14841  -1.14128  -1.12968  -0.91788
 Alpha  occ. eigenvalues --   -0.90294  -0.88211  -0.87152  -0.80584  -0.78321
 Alpha  occ. eigenvalues --   -0.75938  -0.72433  -0.71804  -0.70922  -0.69834
 Alpha  occ. eigenvalues --   -0.68824  -0.64919  -0.64212  -0.62852  -0.62456
 Alpha  occ. eigenvalues --   -0.61503  -0.60687  -0.60031  -0.58859  -0.58179
 Alpha  occ. eigenvalues --   -0.57686  -0.56711  -0.55911  -0.54869  -0.54080
 Alpha  occ. eigenvalues --   -0.53405  -0.52709  -0.52136  -0.51889  -0.50102
 Alpha  occ. eigenvalues --   -0.49644  -0.49426  -0.49039  -0.47362  -0.46701
 Alpha  occ. eigenvalues --   -0.46435  -0.45351  -0.45083  -0.44548  -0.43298
 Alpha  occ. eigenvalues --   -0.42070  -0.41726  -0.41485  -0.41380  -0.40728
 Alpha  occ. eigenvalues --   -0.38728  -0.38530  -0.38127  -0.37509  -0.36690
 Alpha  occ. eigenvalues --   -0.36235  -0.35915  -0.35029  -0.34500  -0.34132
 Alpha  occ. eigenvalues --   -0.33209
 Alpha virt. eigenvalues --    0.04417   0.05658   0.06395   0.07157   0.07448
 Alpha virt. eigenvalues --    0.08777   0.09307   0.09835   0.11017   0.11148
 Alpha virt. eigenvalues --    0.11484   0.12322   0.13027   0.13625   0.14018
 Alpha virt. eigenvalues --    0.14138   0.14893   0.16067   0.16401   0.16722
 Alpha virt. eigenvalues --    0.17386   0.17676   0.18623   0.19077   0.20011
 Alpha virt. eigenvalues --    0.21012   0.22188   0.22956   0.24099   0.24481
 Alpha virt. eigenvalues --    0.24895   0.25260   0.25782   0.26245   0.27390
 Alpha virt. eigenvalues --    0.28567   0.30015   0.31041   0.31460   0.31900
 Alpha virt. eigenvalues --    0.33277   0.33836   0.34939   0.35246   0.36479
 Alpha virt. eigenvalues --    0.38234   0.38870   0.39922   0.40641   0.41190
 Alpha virt. eigenvalues --    0.42369   0.42455   0.43017   0.43378   0.44439
 Alpha virt. eigenvalues --    0.44935   0.46475   0.46515   0.46932   0.47569
 Alpha virt. eigenvalues --    0.48804   0.49372   0.49795   0.49937   0.50572
 Alpha virt. eigenvalues --    0.51421   0.52498   0.52916   0.53380   0.54000
 Alpha virt. eigenvalues --    0.54709   0.55660   0.56013   0.56402   0.56866
 Alpha virt. eigenvalues --    0.57861   0.57945   0.58729   0.59155   0.59490
 Alpha virt. eigenvalues --    0.60270   0.60804   0.61638   0.62190   0.62950
 Alpha virt. eigenvalues --    0.63225   0.63636   0.64260   0.64951   0.65239
 Alpha virt. eigenvalues --    0.65679   0.66055   0.66658   0.67172   0.67580
 Alpha virt. eigenvalues --    0.68318   0.69020   0.69242   0.69663   0.71059
 Alpha virt. eigenvalues --    0.71413   0.74071   0.75033   0.76936   0.78851
 Alpha virt. eigenvalues --    0.82202   0.83271   0.84963   0.85917   0.86950
 Alpha virt. eigenvalues --    0.88026   0.88389   0.90245   0.90820   0.91154
 Alpha virt. eigenvalues --    0.92239   0.93034   0.94405   0.94645   0.95500
 Alpha virt. eigenvalues --    0.96444   0.97227   0.98657   0.98916   0.99160
 Alpha virt. eigenvalues --    0.99756   1.01517   1.01906   1.03296   1.04072
 Alpha virt. eigenvalues --    1.04666   1.05389   1.06221   1.06646   1.08401
 Alpha virt. eigenvalues --    1.08414   1.09740   1.11171   1.12015   1.13943
 Alpha virt. eigenvalues --    1.14425   1.14927   1.15546   1.16305   1.16679
 Alpha virt. eigenvalues --    1.18659   1.19961   1.21143   1.22135   1.22811
 Alpha virt. eigenvalues --    1.24114   1.26167   1.26558   1.27973   1.29576
 Alpha virt. eigenvalues --    1.30365   1.32238   1.33881   1.35044   1.36291
 Alpha virt. eigenvalues --    1.38789   1.39509   1.40062   1.41010   1.41496
 Alpha virt. eigenvalues --    1.42685   1.43706   1.44322   1.45529   1.46198
 Alpha virt. eigenvalues --    1.46788   1.47199   1.48236   1.49556   1.49879
 Alpha virt. eigenvalues --    1.50481   1.51436   1.51929   1.52662   1.53586
 Alpha virt. eigenvalues --    1.54102   1.54842   1.55234   1.56050   1.56700
 Alpha virt. eigenvalues --    1.57371   1.57871   1.58391   1.59260   1.59510
 Alpha virt. eigenvalues --    1.59761   1.59864   1.61145   1.61730   1.62747
 Alpha virt. eigenvalues --    1.62934   1.63842   1.63990   1.65569   1.65966
 Alpha virt. eigenvalues --    1.66723   1.67676   1.68061   1.68558   1.69937
 Alpha virt. eigenvalues --    1.70665   1.70761   1.72432   1.73605   1.74465
 Alpha virt. eigenvalues --    1.74946   1.76055   1.76605   1.77834   1.78768
 Alpha virt. eigenvalues --    1.79341   1.80567   1.81827   1.83192   1.83570
 Alpha virt. eigenvalues --    1.84670   1.85314   1.85989   1.87257   1.87758
 Alpha virt. eigenvalues --    1.89484   1.90222   1.92680   1.92796   1.94438
 Alpha virt. eigenvalues --    1.94695   1.95510   1.96031   1.96763   1.98501
 Alpha virt. eigenvalues --    1.99622   2.00473   2.03026   2.03394   2.04729
 Alpha virt. eigenvalues --    2.05004   2.06062   2.06370   2.07690   2.08309
 Alpha virt. eigenvalues --    2.09123   2.10820   2.11240   2.12056   2.12315
 Alpha virt. eigenvalues --    2.13189   2.14428   2.15175   2.15353   2.16919
 Alpha virt. eigenvalues --    2.17951   2.18273   2.19420   2.20380   2.22454
 Alpha virt. eigenvalues --    2.22990   2.24180   2.25151   2.26263   2.27353
 Alpha virt. eigenvalues --    2.29011   2.30483   2.32669   2.33656   2.34720
 Alpha virt. eigenvalues --    2.35033   2.35971   2.41126   2.41595   2.44049
 Alpha virt. eigenvalues --    2.44420   2.46588   2.47503   2.48529   2.50674
 Alpha virt. eigenvalues --    2.51693   2.52536   2.53505   2.54482   2.55453
 Alpha virt. eigenvalues --    2.56188   2.56907   2.58302   2.58534   2.60042
 Alpha virt. eigenvalues --    2.61001   2.61854   2.62205   2.64804   2.65842
 Alpha virt. eigenvalues --    2.71036   2.75475   2.77543   2.78121   2.79256
 Alpha virt. eigenvalues --    2.81456   2.81703   2.82528   2.82965   2.84821
 Alpha virt. eigenvalues --    2.85285   2.86826   2.88811   2.90441   2.92019
 Alpha virt. eigenvalues --    2.93207   2.94957   2.95943   2.97264   2.99111
 Alpha virt. eigenvalues --    2.99738   3.00795   3.02141   3.03924   3.04648
 Alpha virt. eigenvalues --    3.04860   3.05895   3.09701   3.10050   3.10985
 Alpha virt. eigenvalues --    3.12718   3.13016   3.13630   3.14985   3.16403
 Alpha virt. eigenvalues --    3.17610   3.19294   3.20110   3.20445   3.21350
 Alpha virt. eigenvalues --    3.21670   3.22266   3.23025   3.24343   3.24480
 Alpha virt. eigenvalues --    3.25004   3.25581   3.27660   3.27979   3.29035
 Alpha virt. eigenvalues --    3.30091   3.31763   3.33115   3.34265   3.34657
 Alpha virt. eigenvalues --    3.36480   3.37617   3.38223   3.38819   3.41094
 Alpha virt. eigenvalues --    3.41398   3.42566   3.43872   3.45680   3.47512
 Alpha virt. eigenvalues --    3.48848   3.52879   3.55211   3.56471   3.62173
[...]
    31  O    0.000011   0.000247   0.000040   0.000000  -0.000000  -0.042460
    32  H    0.000886   0.002264  -0.000107  -0.000016   0.000004  -0.006679
    33  C    0.000001   0.000043   0.000000   0.000000   0.000000  -0.057182
    34  H    0.000000  -0.000001   0.000001  -0.000000  -0.000000   0.001384
    35  O    0.000000  -0.000000   0.000000  -0.000000  -0.000000   0.006545
    36  H    0.000000  -0.000003   0.000000  -0.000000  -0.000000   0.001694
    37  C   -0.000000  -0.000007   0.000000  -0.000000  -0.000000  -0.001855
    38  H    0.000000  -0.000001   0.000000   0.000000   0.000000   0.000736
    39  O   -0.000000   0.000000  -0.000000  -0.000000   0.000000  -0.000253
    40  H   -0.000000   0.000000  -0.000000   0.000000   0.000000  -0.000350
    41  C    0.000000   0.000000  -0.000000  -0.000000  -0.000000   0.004517
    42  H   -0.000000  -0.000000  -0.000000  -0.000000   0.000000  -0.000230
    43  H   -0.000000  -0.000000   0.000000   0.000000  -0.000000  -0.001009
    44  O   -0.000000   0.000000  -0.000000   0.000000   0.000000  -0.000924
    45  H    0.000000   0.000000   0.000000  -0.000000  -0.000000   0.000118
              25         26         27         28         29         30
     1  C   -0.000031  -0.000002  -0.000001   0.000006   0.000000  -0.000000
     2  H   -0.000020   0.000001   0.000000  -0.000008   0.000001  -0.000001
     3  O    0.000000   0.000000   0.000000   0.000000   0.000000  -0.000000
     4  H   -0.000001   0.000000   0.000000   0.000000  -0.000000  -0.000000
     5  C    0.000727   0.000015   0.000007  -0.000840   0.000018  -0.000070
     6  H    0.000146   0.000016   0.000003  -0.000117  -0.000012   0.000090
     7  O   -0.000005   0.000000   0.000000   0.000000   0.000001   0.000001
     8  C    0.000154   0.000030   0.000010   0.000267   0.000034  -0.000002
     9  H    0.000030   0.000004   0.000008  -0.000008   0.000004   0.000000
    10  O   -0.000005  -0.000001  -0.000000  -0.000002  -0.000000   0.000000
    11  H   -0.000023  -0.000034  -0.000020   0.000000  -0.000003   0.000000
    12  C   -0.004125   0.000048  -0.000226   0.009120   0.000858  -0.000091
    13  H    0.002193  -0.000577   0.000171   0.002971   0.000041   0.000119
    14  O    0.007089   0.004320   0.002266  -0.012976   0.000828  -0.000018
    15  H   -0.002616  -0.008109  -0.001600   0.011123  -0.000047  -0.000044
    16  C   -0.015953  -0.000828  -0.000245  -0.002865   0.002920  -0.001041
    17  H    0.009277   0.000165   0.000076  -0.000797   0.001145   0.000147
    18  O   -0.047921   0.003991  -0.000121  -0.051541  -0.036652   0.001480
    19  C   -0.000239  -0.000001  -0.000001   0.000031  -0.000151  -0.000028
    20  H    0.000236   0.000007  -0.000000   0.000028   0.000134   0.000118
    21  H   -0.000116  -0.000000  -0.000000   0.000004  -0.000022   0.000002
    22  O    0.000001   0.000000  -0.000000   0.000000   0.000000  -0.000000
    23  H   -0.000000  -0.000000  -0.000000  -0.000000  -0.000000  -0.000000
    24  C    0.403806  -0.078983  -0.009408   0.223145   0.177254  -0.044663
    25  H    0.589241   0.001724   0.008943  -0.053102  -0.064623   0.012418
    26  C    0.001724   5.418415   0.388905   0.202364  -0.012636   0.002025
    27  H    0.008943   0.388905   0.547939  -0.040966   0.002421   0.000354
    28  O   -0.053102   0.202364  -0.040966   8.209971  -0.038002   0.003070
    29  C   -0.064623  -0.012636   0.002421  -0.038002   5.309224   0.378656
    30  H    0.012418   0.002025   0.000354   0.003070   0.378656   0.552679
    31  O    0.009205   0.000152  -0.000175   0.001928   0.234888  -0.033874
    32  H   -0.001332  -0.000006   0.000021   0.000291  -0.040951  -0.005083
    33  C   -0.004235  -0.028403  -0.014262  -0.009724   0.224799  -0.048064
    34  H    0.005146  -0.003261   0.005253   0.000737  -0.050653   0.010321
    35  O   -0.000116   0.003351  -0.000091  -0.000081  -0.041705   0.004408
    36  H   -0.000082  -0.000995  -0.000067  -0.000043  -0.011112  -0.001543
    37  C   -0.002898   0.150343  -0.053109  -0.035136  -0.060385  -0.001683
    38  H   -0.000043  -0.044768   0.010495   0.003280   0.001245   0.006013
    39  O   -0.000099  -0.048039   0.009144   0.001393   0.006424  -0.000017
    40  H   -0.000019   0.012131  -0.000783  -0.000246   0.001577  -0.000056
    41  C    0.000735   0.305438  -0.038676  -0.043690  -0.001772  -0.000099
    42  H    0.000081  -0.052156  -0.007102   0.004438  -0.000014   0.000015
    43  H    0.000081  -0.041955   0.011135   0.000647   0.000000   0.000026
    44  O   -0.000185  -0.067421   0.002922   0.001347  -0.000004   0.000006
    45  H   -0.000005   0.012084  -0.000363  -0.000173  -0.000003  -0.000001
              31         32         33         34         35         36
     1  C    0.000000   0.000000   0.000000   0.000000   0.000000  -0.000000
     2  H    0.000000   0.000000   0.000000   0.000000   0.000000   0.000000
     3  O   -0.000000   0.000000  -0.000000  -0.000000   0.000000   0.000000
     4  H   -0.000000  -0.000000   0.000000   0.000000  -0.000000  -0.000000
     5  C   -0.000125  -0.000617  -0.000013  -0.000004   0.000000   0.000000
     6  H   -0.000007  -0.000077   0.000002   0.000000   0.000000   0.000000
     7  O   -0.000000   0.000004  -0.000000   0.000000   0.000000  -0.000000
     8  C   -0.000000  -0.000005  -0.000001  -0.000001   0.000000   0.000000
     9  H    0.000000  -0.000000  -0.000000  -0.000000  -0.000000   0.000000
    10  O    0.000000   0.000000   0.000000   0.000000  -0.000000  -0.000000
    11  H    0.000000   0.000000   0.000000   0.000000  -0.000000  -0.000000
    12  C    0.000019   0.000087   0.000004  -0.000006   0.000000   0.000000
    13  H    0.000000  -0.000011  -0.000012  -0.000005  -0.000000  -0.000000
    14  O   -0.000001  -0.000009  -0.000084  -0.000063   0.000000   0.000000
    15  H   -0.000016   0.000006  -0.000099  -0.000036   0.000001  -0.000000
    16  C   -0.000865  -0.000197  -0.000213   0.000002   0.000001   0.000003
    17  H    0.000136  -0.000342   0.000030  -0.000021  -0.000000  -0.000002
    18  O   -0.002612   0.010164   0.003500  -0.000197  -0.000016  -0.000006
    19  C    0.000011   0.000886   0.000001   0.000000   0.000000   0.000000
    20  H    0.000247   0.002264   0.000043  -0.000001  -0.000000  -0.000003
    21  H    0.000040  -0.000107   0.000000   0.000001   0.000000   0.000000
    22  O    0.000000  -0.000016   0.000000  -0.000000  -0.000000  -0.000000
    23  H   -0.000000   0.000004   0.000000  -0.000000  -0.000000  -0.000000
    24  C   -0.042460  -0.006679  -0.057182   0.001384   0.006545   0.001694
    25  H    0.009205  -0.001332  -0.004235   0.005146  -0.000116  -0.000082
    26  C    0.000152  -0.000006  -0.028403  -0.003261   0.003351  -0.000995
    27  H   -0.000175   0.000021  -0.014262   0.005253  -0.000091  -0.000067
    28  O    0.001928   0.000291  -0.009724   0.000737  -0.000081  -0.000043
    29  C    0.234888  -0.040951   0.224799  -0.050653  -0.041705  -0.011112
    30  H   -0.033874  -0.005083  -0.048064   0.010321   0.004408  -0.001543
    31  O    7.965210   0.326391  -0.045629   0.002627  -0.002261   0.014824
    32  H    0.326391   0.435291   0.009455  -0.000606  -0.000438  -0.000666
    33  C   -0.045629   0.009455   5.261815   0.378959   0.248703  -0.042042
    34  H    0.002627  -0.000606   0.378959   0.567243  -0.036748  -0.004678
    35  O   -0.002261  -0.000438   0.248703  -0.036748   7.965885   0.326034
    36  H    0.014824  -0.000666  -0.042042  -0.004678   0.326034   0.430383
    37  C    0.004440  -0.000561   0.233403  -0.049861  -0.050457   0.012682
    38  H   -0.000182  -0.000011  -0.054452   0.011210   0.003547  -0.000697
    39  O   -0.000015   0.000007  -0.031318   0.006232  -0.003695  -0.000469
    40  H   -0.000023   0.000006  -0.004263  -0.001487   0.016077  -0.000911
    41  C    0.000010  -0.000001   0.007644  -0.000684  -0.000075   0.000025
    42  H    0.000000  -0.000000   0.000363   0.000047  -0.000005   0.000003
    43  H    0.000000   0.000001  -0.000572  -0.000060  -0.000001  -0.000002
    44  O   -0.000000  -0.000000  -0.000118   0.000002   0.000000  -0.000000
    45  H    0.000000  -0.000000   0.000030   0.000001  -0.000000   0.000000
              37         38         39         40         41         42
     1  C   -0.000000   0.000000   0.000000  -0.000000   0.000000  -0.000000
     2  H   -0.000000   0.000000   0.000000  -0.000000  -0.000000  -0.000000
     3  O    0.000000  -0.000000  -0.000000  -0.000000  -0.000000  -0.000000
     4  H    0.000000  -0.000000   0.000000   0.000000   0.000000  -0.000000
     5  C    0.000004  -0.000001   0.000000  -0.000000  -0.000001   0.000000
     6  H   -0.000002  -0.000001   0.000000  -0.000000  -0.000001  -0.000000
     7  O   -0.000000  -0.000000   0.000000   0.000000   0.000000  -0.000000
     8  C    0.000002  -0.000000  -0.000000   0.000000  -0.000023   0.000000
     9  H    0.000000  -0.000000  -0.000000  -0.000000  -0.000001  -0.000000
    10  O   -0.000000   0.000000   0.000000   0.000000  -0.000001  -0.000000
    11  H   -0.000001   0.000000   0.000000  -0.000000   0.000020  -0.000000
    12  C    0.000156  -0.000008  -0.000000   0.000000   0.000406  -0.000001
    13  H    0.000034  -0.000008  -0.000000   0.000000   0.000030   0.000037
    14  O    0.000178   0.000004  -0.000000  -0.000000  -0.000438  -0.000087
    15  H    0.000928  -0.000076  -0.000024   0.000006  -0.005748   0.001223
    16  C   -0.000172   0.000017   0.000000  -0.000000   0.000078  -0.000002
    17  H   -0.000040  -0.000003   0.000000  -0.000000  -0.000005  -0.000000
    18  O   -0.000577  -0.000084   0.000000   0.000000  -0.000204   0.000006
    19  C   -0.000000   0.000000  -0.000000  -0.000000   0.000000  -0.000000
    20  H   -0.000007  -0.000001   0.000000   0.000000   0.000000  -0.000000
    21  H    0.000000   0.000000  -0.000000  -0.000000  -0.000000  -0.000000
    22  O   -0.000000   0.000000  -0.000000   0.000000  -0.000000  -0.000000
    23  H   -0.000000   0.000000   0.000000   0.000000  -0.000000   0.000000
    24  C   -0.001855   0.000736  -0.000253  -0.000350   0.004517  -0.000230
    25  H   -0.002898  -0.000043  -0.000099  -0.000019   0.000735   0.000081
    26  C    0.150343  -0.044768  -0.048039   0.012131   0.305438  -0.052156
    27  H   -0.053109   0.010495   0.009144  -0.000783  -0.038676  -0.007102
    28  O   -0.035136   0.003280   0.001393  -0.000246  -0.043690   0.004438
    29  C   -0.060385   0.001245   0.006424   0.001577  -0.001772  -0.000014
    30  H   -0.001683   0.006013  -0.000017  -0.000056  -0.000099   0.000015
    31  O    0.004440  -0.000182  -0.000015  -0.000023   0.000010   0.000000
    32  H   -0.000561  -0.000011   0.000007   0.000006  -0.000001  -0.000000
    33  C    0.233403  -0.054452  -0.031318  -0.004263   0.007644   0.000363
    34  H   -0.049861   0.011210   0.006232  -0.001487  -0.000684   0.000047
    35  O   -0.050457   0.003547  -0.003695   0.016077  -0.000075  -0.000005
    36  H    0.012682  -0.000697  -0.000469  -0.000911   0.000025   0.000003
    37  C    5.287387   0.382976   0.223252  -0.048764  -0.045010  -0.000817
    38  H    0.382976   0.570199  -0.033823  -0.004165  -0.012704  -0.000146
    39  O    0.223252  -0.033823   7.966198   0.322518  -0.002936   0.013241
    40  H   -0.048764  -0.004165   0.322518   0.434022  -0.000216  -0.000261
    41  C   -0.045010  -0.012704  -0.002936  -0.000216   4.796555   0.410358
    42  H   -0.000817  -0.000146   0.013241  -0.000261   0.410358   0.544832
    43  H   -0.002504   0.004998  -0.000224  -0.000061   0.396746  -0.035840
    44  O    0.003424  -0.000135  -0.000006   0.000007   0.263039  -0.030787
    45  H   -0.000589  -0.000008   0.000008  -0.000004  -0.035627  -0.003420
              43         44         45
     1  C   -0.000000  -0.000000   0.000000
     2  H   -0.000000  -0.000001   0.000000
     3  O   -0.000000  -0.000000   0.000000
     4  H   -0.000000   0.000000   0.000000
     5  C   -0.000001   0.000001  -0.000001
     6  H    0.000001  -0.000001  -0.000000
     7  O    0.000000  -0.000000   0.000000
     8  C    0.000000  -0.000037  -0.000034
     9  H   -0.000000  -0.000001  -0.000000
    10  O   -0.000000  -0.000001   0.000015
    11  H   -0.000000   0.000068   0.000053
    12  C   -0.000063  -0.000615   0.000247
    13  H   -0.000054   0.001743  -0.000100
    14  O   -0.000045  -0.009245   0.000481
    15  H    0.000829   0.042715  -0.004125
    16  C    0.000001   0.000008   0.000010
    17  H    0.000000  -0.000000  -0.000000
    18  O   -0.000028   0.000006  -0.000001
    19  C   -0.000000  -0.000000   0.000000
    20  H   -0.000000   0.000000   0.000000
    21  H    0.000000  -0.000000   0.000000
    22  O    0.000000   0.000000  -0.000000
    23  H   -0.000000   0.000000  -0.000000
    24  C   -0.001009  -0.000924   0.000118
    25  H    0.000081  -0.000185  -0.000005
    26  C   -0.041955  -0.067421   0.012084
    27  H    0.011135   0.002922  -0.000363
    28  O    0.000647   0.001347  -0.000173
    29  C    0.000000  -0.000004  -0.000003
    30  H    0.000026   0.000006  -0.000001
    31  O    0.000000  -0.000000   0.000000
    32  H    0.000001  -0.000000  -0.000000
    33  C   -0.000572  -0.000118   0.000030
    34  H   -0.000060   0.000002   0.000001
    35  O   -0.000001   0.000000  -0.000000
    36  H   -0.000002  -0.000000   0.000000
    37  C   -0.002504   0.003424  -0.000589
    38  H    0.004998  -0.000135  -0.000008
    39  O   -0.000224  -0.000006   0.000008
    40  H   -0.000061   0.000007  -0.000004
    41  C    0.396746   0.263039  -0.035627
    42  H   -0.035840  -0.030787  -0.003420
    43  H    0.569304  -0.034242  -0.006217
    44  O   -0.034242   7.959658   0.321244
    45  H   -0.006217   0.321244   0.434806
 Mulliken charges:
               1
     1  C    0.230870
     2  H    0.145977
     3  O   -0.373726
     4  H    0.250973
     5  C   -0.086395
     6  H    0.164032
     7  O   -0.403431
     8  C    0.003789
     9  H    0.133868
    10  O   -0.413285
    11  H    0.262861
    12  C   -0.061886
    13  H    0.169199
    14  O   -0.453065
    15  H    0.300295
    16  C    0.045436
    17  H    0.168590
    18  O   -0.405441
    19  C    0.007729
    20  H    0.133804
    21  H    0.121834
    22  O   -0.416791
    23  H    0.261417
    24  C    0.214897
    25  H    0.146562
    26  C   -0.117354
    27  H    0.177145
    28  O   -0.385841
    29  C    0.016277
    30  H    0.164427
    31  O   -0.431883
    32  H    0.272840
    33  C   -0.028065
    34  H    0.159207
    35  O   -0.438864
    36  H    0.277670
    37  C    0.055218
    38  H    0.156595
    39  O   -0.427498
    40  H    0.275266
    41  C    0.002310
    42  H    0.156224
    43  H    0.139105
    44  O   -0.452467
    45  H    0.281574
 Sum of Mulliken charges =  -0.00000
 Mulliken charges with hydrogens summed into heavy atoms:
               1
     1  C    0.376847
     3  O   -0.122753
     5  C    0.077638
     7  O   -0.403431
     8  C    0.137657
    10  O   -0.150424
    12  C    0.107313
    14  O   -0.152770
    16  C    0.214026
    18  O   -0.405441
    19  C    0.263368
    22  O   -0.155374
    24  C    0.361460
    26  C    0.059791
    28  O   -0.385841
    29  C    0.180705
    31  O   -0.159043
    33  C    0.131142
    35  O   -0.161194
    37  C    0.211812
    39  O   -0.152232
    41  C    0.297638
    44  O   -0.170892
 Electronic spatial extent (au):  <R**2>=           8694.0571
 Charge=              0.0000 electrons
 Dipole moment (field-independent basis, Debye):
    X=             -3.9186    Y=             -1.3900    Z=              0.5003  Tot=              4.1879
 Quadrupole moment (field-independent basis, Debye-Ang):
   XX=           -150.2926   YY=           -134.1215   ZZ=           -133.8653
   XY=              0.8767   XZ=             10.8696   YZ=              7.6298
 Traceless Quadrupole moment (field-independent basis, Debye-Ang):
   XX=            -10.8661   YY=              5.3049   ZZ=              5.5612
   XY=              0.8767   XZ=             10.8696   YZ=              7.6298
 Octapole moment (field-independent basis, Debye-Ang**2):
  XXX=            -73.5828  YYY=            -74.1224  ZZZ=             -1.5180  XYY=            -74.9567
  XXY=             10.0401  XXZ=             42.6230  XZZ=              9.4745  YZZ=            -12.2804
  YYZ=             -5.2803  XYZ=            -14.7257
 Hexadecapole moment (field-independent basis, Debye-Ang**3):
 XXXX=          -7650.0695 YYYY=          -2635.1462 ZZZZ=           -349.0094 XXXY=            -16.7597
 XXXZ=            197.7966 YYYX=            -53.5981 YYYZ=            115.5002 ZZZX=             15.5336
 ZZZY=              8.1046 XXYY=          -1864.7942 XXZZ=          -1220.8931 YYZZ=           -534.2773
 XXYZ=             35.2567 YYXZ=            102.9733 ZZXY=            -21.7061
 N-N= 2.325640935092D+03 E-N=-7.699482997843D+03  KE= 1.294099842200D+03
 No NMR shielding tensors so no spin-rotation constants.
 Leave Link  601 at Thu Mar 16 19:52:32 2023, MaxMem=   262144000 cpu:               1.7 elap:               0.2
 (Enter /dragofs/sw/campus/0.2/software/gaussian/16.gaussian/gaussian/g16_legacy/l9999.exe)
 1\1\GINC-DRAGO31070246\FOpt\RM062X\6-311G(d,p)\C12H22O11\JRAMOS\16-Mar
 -2023\0\\#p opt M062X/6-311g(d,p)\\Optimization 03-DIHEDRAL_PHI_PSI_14
 b/dimer14b_000_009.log\\0,1\C,-3.9540863393,-0.4374839597,0.2720118567
 \H,-3.8580345284,-0.565893182,1.3573404073\O,-5.2633499718,-0.71825304
 58,-0.0473748374\H,-5.3263232157,-0.8269682271,-1.0013076641\C,-2.4026
 782068,1.3515538864,0.3613936353\H,-2.3174016204,1.2033021783,1.448256
 4948\O,-3.6749546555,0.9118982457,-0.0793067389\C,-2.9480356648,-1.304
 3893611,-0.4676543634\H,-3.0802743953,-1.1013479789,-1.5443298509\O,-3
 .1880806989,-2.6555331227,-0.1784163037\H,-2.450457302,-3.1343881799,-
 0.5730358466\C,-1.5087662615,-0.9356806506,-0.1038228898\H,-1.34153087
 54,-1.1636814259,0.9564049419\O,-0.6952505298,-1.7529096523,-0.9240744
 75\H,0.024751194,-2.1269239318,-0.3952989659\C,-1.2863070846,0.5621896
 022,-0.3226548433\H,-1.287769901,0.7602173103,-1.4041022995\O,-0.08587
 75042,1.0764811873,0.2490811507\C,-2.3553259583,2.8389487199,0.0609017
 12\H,-1.427895699,3.2611140314,0.4475015942\H,-2.3802309704,2.97315146
 97,-1.0302973338\O,-3.4216083326,3.5056576857,0.6882681024\H,-4.214226
 9767,3.0024056176,0.4722366658\C,1.1021882999,0.5236490531,-0.19288678
 98\H,1.0410103689,0.2767325213,-1.2648207743\C,2.5295056343,-1.3182745
 754,0.0928378\H,2.4597489524,-1.4941339785,-0.991891295\O,1.3643465467
 ,-0.6492990846,0.5501602576\C,2.2200988915,1.5207890531,0.0737278172\H
 ,2.2187955338,1.7426595246,1.1489004225\O,2.0774159892,2.6945623192,-0
 .6958261587\H,1.2480156374,3.1099641148,-0.4413110122\C,3.5468741288,0
 .8951448374,-0.3165406041\H,3.5368458726,0.7189185402,-1.4029607578\O,
 4.6423399119,1.7130767445,0.0337932268\H,4.4907459261,2.5772697084,-0.
 3624510264\C,3.7437911938,-0.4433547429,0.3761183184\H,3.8132978131,-0
 .267710506,1.4594479101\O,4.893132215,-1.0979887883,-0.106818828\H,5.6
 088315517,-0.4536739525,-0.0835487623\C,2.5599498953,-2.6573667787,0.7
 842683276\H,3.4781862426,-3.1825159562,0.5078930918\H,2.5335983214,-2.
 4989427356,1.8681994725\O,1.4007507747,-3.3490813456,0.3384800856\H,1.
 3034457974,-4.1667601891,0.8301081298\\Version=EM64L-G16RevA.03\State=
 1-A\HF=-1297.8326898\RMSD=4.155e-09\RMSF=9.507e-06\Dipole=1.5070113,-0
 .6405514,-0.1824655\Quadrupole=-8.2250333,3.9129231,4.3121102,0.167938
 7,7.630869,-6.1506801\PG=C01 [X(C12H22O11)]\\@


 MICRO CREDO - NEVER TRUST A COMPUTER BIGGER
               BIGGER THAN YOU CAN LIFT.
 Job cpu time:       0 days  7 hours 15 minutes 17.8 seconds.
 Elapsed time:       0 days  0 hours 54 minutes 35.4 seconds.
 File lengths (MBytes):  RWF=    189 Int=      0 D2E=      0 Chk=     24 Scr=      1
 Normal termination of Gaussian 16 at Thu Mar 16 19:52:33 2023.
