 Entering Gaussian System, Link 0=/dragofs/sw/campus/0.2/software/gaussian/16.gaussian/gaussian/g16_legacy/g16
 Input=dimer14b_000_004_opt.com
 Output=dimer14b_000_004_opt.log
 Initial command:
 /dragofs/sw/campus/0.2/software/gaussian/16.gaussian/gaussian/g16_legacy/l1.exe "/tmp/jramos/82045/Gau-1764765.inp" -scrdir="/tmp/jramos/82045/"
 Entering Link 1 = /dragofs/sw/campus/0.2/software/gaussian/16.gaussian/gaussian/g16_legacy/l1.exe PID=   1764766.
  
 Copyright (c) 1988,1990,1992,1993,1995,1998,2003,2009,2016,
            Gaussian, Inc.  All Rights Reserved.
  
 This is part of the Gaussian(R) 16 program.  It is based on
 the Gaussian(R) 09 system (copyright 2009, Gaussian, Inc.),
 the Gaussian(R) 03 system (copyright 2003, Gaussian, Inc.),
 the Gaussian(R) 98 system (copyright 1998, Gaussian, Inc.),
 the Gaussian(R) 94 system (copyright 1995, Gaussian, Inc.),
 the Gaussian 92(TM) system (copyright 1992, Gaussian, Inc.),
 the Gaussian 90(TM) system (copyright 1990, Gaussian, Inc.),
 the Gaussian 88(TM) system (copyright 1988, Gaussian, Inc.),
 the Gaussian 86(TM) system (copyright 1986, Carnegie Mellon
 University), and the Gaussian 82(TM) system (copyright 1983,
 Carnegie Mellon University). Gaussian is a federally registered
 trademark of Gaussian, Inc.
  
 This software contains proprietary and confidential information,
 including trade secrets, belonging to Gaussian, Inc.
  
 This software is provided under written license and may be
 used, copied, transmitted, or stored only in accord with that
 written license.
  
 The following legend is applicable only to US Government
 contracts under FAR:
  
                    RESTRICTED RIGHTS LEGEND
  
 Use, reproduction and disclosure by the US Government is
 subject to restrictions as set forth in subparagraphs (a)
 and (c) of the Commercial Computer Software - Restricted
 Rights clause in FAR 52.227-19.
  
 Gaussian, Inc.
 340 Quinnipiac St., Bldg. 40, Wallingford CT 06492
  
  
 ---------------------------------------------------------------
 Warning -- This program may not be used in any manner that
 competes with the business of Gaussian, Inc. or will provide
 assistance to any competitor of Gaussian, Inc.  The licensee
 of this program is prohibited from giving any competitor of
 Gaussian, Inc. access to this program.  By using this program,
 the user acknowledges that Gaussian, Inc. is engaged in the
 business of creating and licensing software in the field of
 computational chemistry and represents and warrants to the
 licensee that it is not a competitor of Gaussian, Inc. and that
 it will not use this program in any manner prohibited above.
 ---------------------------------------------------------------
  

 Cite this work as:
 Gaussian 16, Revision A.03,
 M. J. Frisch, G. W. Trucks, H. B. Schlegel, G. E. Scuseria, 
 M. A. Robb, J. R. Cheeseman, G. Scalmani, V. Barone, 
 G. A. Petersson, H. Nakatsuji, X. Li, M. Caricato, A. V. Marenich, 
 J. Bloino, B. G. Janesko, R. Gomperts, B. Mennucci, H. P. Hratchian, 
 J. V. Ortiz, A. F. Izmaylov, J. L. Sonnenberg, D. Williams-Young, 
 F. Ding, F. Lipparini, F. Egidi, J. Goings, B. Peng, A. Petrone, 
 T. Henderson, D. Ranasinghe, V. G. Zakrzewski, J. Gao, N. Rega, 
 G. Zheng, W. Liang, M. Hada, M. Ehara, K. Toyota, R. Fukuda, 
 J. Hasegawa, M. Ishida, T. Nakajima, Y. Honda, O. Kitao, H. Nakai, 
 T. Vreven, K. Throssell, J. A. Montgomery, Jr., J. E. Peralta, 
 F. Ogliaro, M. J. Bearpark, J. J. Heyd, E. N. Brothers, K. N. Kudin, 
 V. N. Staroverov, T. A. Keith, R. Kobayashi, J. Normand, 
 K. Raghavachari, A. P. Rendell, J. C. Burant, S. S. Iyengar, 
 J. Tomasi, M. Cossi, J. M. Millam, M. Klene, C. Adamo, R. Cammi, 
 J. W. Ochterski, R. L. Martin, K. Morokuma, O. Farkas, 
 J. B. Foresman, and D. J. Fox, Gaussian, Inc., Wallingford CT, 2016.
 
 ******************************************
 Gaussian 16:  EM64L-G16RevA.03 25-Dec-2016
                16-Mar-2023 
 ******************************************
 %chk=dimer14b_000_004_opt.chk
 %mem=2000MB
 %nproc=8
 Will use up to    8 processors via shared memory.
 ------------------------
 #p opt M062X/6-311g(d,p)
 ------------------------
 1/18=20,19=15,26=3,38=1/1,3;
 2/9=110,12=2,17=6,18=5,40=1/2;
 3/5=4,6=6,7=101,11=2,25=1,30=1,71=1,74=-55/1,2,3;
 4//1;
 5/5=2,38=5/2;
 6/7=2,8=2,9=2,10=2,28=1/1;
 7//1,2,3,16;
 1/18=20,19=15,26=3/3(2);
 2/9=110/2;
 99//99;
 2/9=110/2;
 3/5=4,6=6,7=101,11=2,25=1,30=1,71=1,74=-55/1,2,3;
 4/5=5,16=3,69=1/1;
 5/5=2,38=5/2;
 7//1,2,3,16;
 1/18=20,19=15,26=3/3(-5);
 2/9=110/2;
 6/7=2,8=2,9=2,10=2,19=2,28=1/1;
 99/9=1/99;
 Leave Link    1 at Thu Mar 16 18:08:47 2023, MaxMem=   262144000 cpu:               0.2 elap:               0.0
 (Enter /dragofs/sw/campus/0.2/software/gaussian/16.gaussian/gaussian/g16_legacy/l101.exe)
 ---------------------------------------------------------
 Optimization 03-DIHEDRAL_PHI_PSI_14b/dimer14b_000_004.log
 ---------------------------------------------------------
 Symbolic Z-matrix:
 Charge =  0 Multiplicity = 1
 C                    -3.92867  -0.41637  -0.58412 
 H                    -3.75611  -0.14471  -1.63244 
 O                    -5.1464   -1.05352  -0.53416 
 H                    -5.40247  -1.15092   0.38834 
 C                    -1.57923  -0.88308  -0.34592 
 H                    -1.47838  -0.50785  -1.37535 
 O                    -2.92193  -1.31973  -0.144 
 C                    -3.83266   0.80863   0.30702 
 H                    -4.06345   0.49548   1.3385 
 O                    -4.7283    1.78899  -0.14402 
 H                    -4.52032   2.59514   0.34025 
 C                    -2.40772   1.32859   0.27996 
 H                    -2.17745   1.66041  -0.74398 
 O                    -2.38059   2.43317   1.16325 
 H                    -1.45935   2.68212   1.28175 
 C                    -1.36286   0.27479   0.65815 
 H                    -1.50583  -0.09227   1.67765 
 O                    -0.1395    1.02512   0.61747 
 C                    -0.76981  -2.17088  -0.21979 
 H                     0.26415  -2.02694  -0.51347 
 H                    -0.79778  -2.49488   0.83234 
 O                    -1.30151  -3.14399  -1.07977 
 H                    -2.25101  -3.15989  -0.91909 
 C                     1.00758   0.59261  -0.03079 
 H                     0.78942   0.3336   -1.08227 
 C                     2.73151  -1.03509   0.05465 
 H                     2.55159  -1.33201  -0.9896 
 O                     1.51629  -0.54394   0.62804 
 C                     1.99771   1.74601   0.00922 
 H                     2.1587    2.01681   1.06075 
 O                     1.54109   2.84576  -0.74761 
 H                     0.71383   3.14878  -0.36354 
 C                     3.30485   1.29618  -0.6084 
 H                     3.12766   1.0576   -1.66763 
 O                     4.31079   2.2781   -0.48812 
 H                     3.97826   3.08335  -0.89722 
 C                     3.80553   0.04739   0.08906 
 H                     4.01981   0.30266   1.1377 
 O                     4.95086  -0.4622   -0.55061 
 H                     5.55968   0.27611  -0.65977 
 C                     3.1392   -2.25219   0.86187 
 H                     4.04939  -2.66575   0.42893 
 H                     3.3562   -1.9295    1.88912 
 O                     2.15522  -3.25717   0.83083 
 H                     1.36272  -2.89136   1.23319 
 
 ITRead=  0  0  0  0  0  0  0  0  0  0  0  0  0  0  0  0  0  0  0  0
 ITRead=  0  0  0  0  0  0  0  0  0  0  0  0  0  0  0  0  0  0  0  0
 ITRead=  0  0  0  0  0
 MicOpt= -1 -1 -1 -1 -1 -1 -1 -1 -1 -1 -1 -1 -1 -1 -1 -1 -1 -1 -1 -1
 MicOpt= -1 -1 -1 -1 -1 -1 -1 -1 -1 -1 -1 -1 -1 -1 -1 -1 -1 -1 -1 -1
 MicOpt= -1 -1 -1 -1 -1
 NAtoms=     45 NQM=       45 NQMF=       0 NMMI=      0 NMMIF=      0
                NMic=       0 NMicF=      0.
                    Isotopes and Nuclear Properties:
 (Nuclear quadrupole moments (NQMom) in fm**2, nuclear magnetic moments (NMagM)
  in nuclear magnetons)

  Atom         1           2           3           4           5           6           7           8           9          10
 IAtWgt=          12           1          16           1          12           1          16          12           1          16
 AtmWgt=  12.0000000   1.0078250  15.9949146   1.0078250  12.0000000   1.0078250  15.9949146  12.0000000   1.0078250  15.9949146
 NucSpn=           0           1           0           1           0           1           0           0           1           0
 AtZEff=  -0.0000000  -0.0000000  -0.0000000  -0.0000000  -0.0000000  -0.0000000  -0.0000000  -0.0000000  -0.0000000  -0.0000000
 NQMom=    0.0000000   0.0000000   0.0000000   0.0000000   0.0000000   0.0000000   0.0000000   0.0000000   0.0000000   0.0000000
 NMagM=    0.0000000   2.7928460   0.0000000   2.7928460   0.0000000   2.7928460   0.0000000   0.0000000   2.7928460   0.0000000
 AtZNuc=   6.0000000   1.0000000   8.0000000   1.0000000   6.0000000   1.0000000   8.0000000   6.0000000   1.0000000   8.0000000

  Atom        11          12          13          14          15          16          17          18          19          20
 IAtWgt=           1          12           1          16           1          12           1          16          12           1
 AtmWgt=   1.0078250  12.0000000   1.0078250  15.9949146   1.0078250  12.0000000   1.0078250  15.9949146  12.0000000   1.0078250
 NucSpn=           1           0           1           0           1           0           1           0           0           1
 AtZEff=  -0.0000000  -0.0000000  -0.0000000  -0.0000000  -0.0000000  -0.0000000  -0.0000000  -0.0000000  -0.0000000  -0.0000000
 NQMom=    0.0000000   0.0000000   0.0000000   0.0000000   0.0000000   0.0000000   0.0000000   0.0000000   0.0000000   0.0000000
 NMagM=    2.7928460   0.0000000   2.7928460   0.0000000   2.7928460   0.0000000   2.7928460   0.0000000   0.0000000   2.7928460
 AtZNuc=   1.0000000   6.0000000   1.0000000   8.0000000   1.0000000   6.0000000   1.0000000   8.0000000   6.0000000   1.0000000

  Atom        21          22          23          24          25          26          27          28          29          30
 IAtWgt=           1          16           1          12           1          12           1          16          12           1
 AtmWgt=   1.0078250  15.9949146   1.0078250  12.0000000   1.0078250  12.0000000   1.0078250  15.9949146  12.0000000   1.0078250
 NucSpn=           1           0           1           0           1           0           1           0           0           1
 AtZEff=  -0.0000000  -0.0000000  -0.0000000  -0.0000000  -0.0000000  -0.0000000  -0.0000000  -0.0000000  -0.0000000  -0.0000000
 NQMom=    0.0000000   0.0000000   0.0000000   0.0000000   0.0000000   0.0000000   0.0000000   0.0000000   0.0000000   0.0000000
 NMagM=    2.7928460   0.0000000   2.7928460   0.0000000   2.7928460   0.0000000   2.7928460   0.0000000   0.0000000   2.7928460
 AtZNuc=   1.0000000   8.0000000   1.0000000   6.0000000   1.0000000   6.0000000   1.0000000   8.0000000   6.0000000   1.0000000

  Atom        31          32          33          34          35          36          37          38          39          40
 IAtWgt=          16           1          12           1          16           1          12           1          16           1
 AtmWgt=  15.9949146   1.0078250  12.0000000   1.0078250  15.9949146   1.0078250  12.0000000   1.0078250  15.9949146   1.0078250
 NucSpn=           0           1           0           1           0           1           0           1           0           1
 AtZEff=  -0.0000000  -0.0000000  -0.0000000  -0.0000000  -0.0000000  -0.0000000  -0.0000000  -0.0000000  -0.0000000  -0.0000000
 NQMom=    0.0000000   0.0000000   0.0000000   0.0000000   0.0000000   0.0000000   0.0000000   0.0000000   0.0000000   0.0000000
 NMagM=    0.0000000   2.7928460   0.0000000   2.7928460   0.0000000   2.7928460   0.0000000   2.7928460   0.0000000   2.7928460
 AtZNuc=   8.0000000   1.0000000   6.0000000   1.0000000   8.0000000   1.0000000   6.0000000   1.0000000   8.0000000   1.0000000

  Atom        41          42          43          44          45
 IAtWgt=          12           1           1          16           1
 AtmWgt=  12.0000000   1.0078250   1.0078250  15.9949146   1.0078250
 NucSpn=           0           1           1           0           1
 AtZEff=  -0.0000000  -0.0000000  -0.0000000  -0.0000000  -0.0000000
 NQMom=    0.0000000   0.0000000   0.0000000   0.0000000   0.0000000
 NMagM=    0.0000000   2.7928460   2.7928460   0.0000000   2.7928460
 AtZNuc=   6.0000000   1.0000000   1.0000000   8.0000000   1.0000000
 Leave Link  101 at Thu Mar 16 18:08:47 2023, MaxMem=   262144000 cpu:               1.0 elap:               0.1
 (Enter /dragofs/sw/campus/0.2/software/gaussian/16.gaussian/gaussian/g16_legacy/l103.exe)

 GradGradGradGradGradGradGradGradGradGradGradGradGradGradGradGradGradGrad
 Berny optimization.
 Initialization pass.
                           ----------------------------
                           !    Initial Parameters    !
                           ! (Angstroms and Degrees)  !
 --------------------------                            --------------------------
 ! Name  Definition              Value          Derivative Info.                !
 --------------------------------------------------------------------------------
 ! R1    R(1,2)                  1.0966         estimate D2E/DX2                !
 ! R2    R(1,3)                  1.3753         estimate D2E/DX2                !
 ! R3    R(1,7)                  1.4224         estimate D2E/DX2                !
 ! R4    R(1,8)                  1.5179         estimate D2E/DX2                !
 ! R5    R(3,4)                  0.9623         estimate D2E/DX2                !
 ! R6    R(5,6)                  1.1003         estimate D2E/DX2                !
 ! R7    R(5,7)                  1.4263         estimate D2E/DX2                !
 ! R8    R(5,16)                 1.5478         estimate D2E/DX2                !
 ! R9    R(5,19)                 1.5263         estimate D2E/DX2                !
 ! R10   R(8,9)                  1.1024         estimate D2E/DX2                !
 ! R11   R(8,10)                 1.4024         estimate D2E/DX2                !
 ! R12   R(8,12)                 1.5171         estimate D2E/DX2                !
 ! R13   R(10,11)                0.9631         estimate D2E/DX2                !
 ! R14   R(12,13)                1.1007         estimate D2E/DX2                !
 ! R15   R(12,14)                1.4146         estimate D2E/DX2                !
 ! R16   R(12,16)                1.5314         estimate D2E/DX2                !
 ! R17   R(14,15)                0.9616         estimate D2E/DX2                !
 ! R18   R(16,17)                1.093          estimate D2E/DX2                !
 ! R19   R(16,18)                1.4357         estimate D2E/DX2                !
 ! R20   R(18,24)                1.3868         estimate D2E/DX2                !
 ! R21   R(19,20)                1.0845         estimate D2E/DX2                !
 ! R22   R(19,21)                1.1012         estimate D2E/DX2                !
 ! R23   R(19,22)                1.4033         estimate D2E/DX2                !
 ! R24   R(22,23)                0.9631         estimate D2E/DX2                !
 ! R25   R(24,25)                1.1047         estimate D2E/DX2                !
 ! R26   R(24,28)                1.4088         estimate D2E/DX2                !
 ! R27   R(24,29)                1.5206         estimate D2E/DX2                !
 ! R28   R(26,27)                1.1005         estimate D2E/DX2                !
 ! R29   R(26,28)                1.4306         estimate D2E/DX2                !
 ! R30   R(26,37)                1.5253         estimate D2E/DX2                !
 ! R31   R(26,41)                1.5163         estimate D2E/DX2                !
 ! R32   R(29,30)                1.0977         estimate D2E/DX2                !
 ! R33   R(29,31)                1.4109         estimate D2E/DX2                !
 ! R34   R(29,33)                1.5141         estimate D2E/DX2                !
 ! R35   R(31,32)                0.9611         estimate D2E/DX2                !
 ! R36   R(33,34)                1.1001         estimate D2E/DX2                !
 ! R37   R(33,35)                1.4109         estimate D2E/DX2                !
 ! R38   R(33,37)                1.5155         estimate D2E/DX2                !
 ! R39   R(35,36)                0.9625         estimate D2E/DX2                !
 ! R40   R(37,38)                1.1003         estimate D2E/DX2                !
 ! R41   R(37,39)                1.4074         estimate D2E/DX2                !
 ! R42   R(39,40)                0.9632         estimate D2E/DX2                !
 ! R43   R(41,42)                1.0895         estimate D2E/DX2                !
 ! R44   R(41,43)                1.0984         estimate D2E/DX2                !
 ! R45   R(41,44)                1.4068         estimate D2E/DX2                !
 ! R46   R(44,45)                0.9611         estimate D2E/DX2                !
 ! A1    A(2,1,3)              106.7885         estimate D2E/DX2                !
 ! A2    A(2,1,7)              109.9836         estimate D2E/DX2                !
 ! A3    A(2,1,8)              110.5703         estimate D2E/DX2                !
 ! A4    A(3,1,7)              108.7368         estimate D2E/DX2                !
 ! A5    A(3,1,8)              114.1154         estimate D2E/DX2                !
 ! A6    A(7,1,8)              106.6256         estimate D2E/DX2                !
 ! A7    A(1,3,4)              108.502          estimate D2E/DX2                !
 ! A8    A(6,5,7)              108.853          estimate D2E/DX2                !
 ! A9    A(6,5,16)             109.8156         estimate D2E/DX2                !
 ! A10   A(6,5,19)             108.4486         estimate D2E/DX2                !
 ! A11   A(7,5,16)             105.592          estimate D2E/DX2                !
 ! A12   A(7,5,19)             103.2519         estimate D2E/DX2                !
 ! A13   A(16,5,19)            120.2285         estimate D2E/DX2                !
 ! A14   A(1,7,5)              115.344          estimate D2E/DX2                !
 ! A15   A(1,8,9)              107.8683         estimate D2E/DX2                !
 ! A16   A(1,8,10)             109.5697         estimate D2E/DX2                !
 ! A17   A(1,8,12)             108.9982         estimate D2E/DX2                !
 ! A18   A(9,8,10)             111.4572         estimate D2E/DX2                !
 ! A19   A(9,8,12)             108.1007         estimate D2E/DX2                !
 ! A20   A(10,8,12)            110.7649         estimate D2E/DX2                !
 ! A21   A(8,10,11)            106.5875         estimate D2E/DX2                !
 ! A22   A(8,12,13)            108.4453         estimate D2E/DX2                !
 ! A23   A(8,12,14)            105.9322         estimate D2E/DX2                !
 ! A24   A(8,12,16)            113.6154         estimate D2E/DX2                !
 ! A25   A(13,12,14)           109.9653         estimate D2E/DX2                !
 ! A26   A(13,12,16)           107.124          estimate D2E/DX2                !
 ! A27   A(14,12,16)           111.7179         estimate D2E/DX2                !
 ! A28   A(12,14,15)           107.3056         estimate D2E/DX2                !
 ! A29   A(5,16,12)            105.0218         estimate D2E/DX2                !
 ! A30   A(5,16,17)            109.6088         estimate D2E/DX2                !
 ! A31   A(5,16,18)            119.4524         estimate D2E/DX2                !
 ! A32   A(12,16,17)           111.8512         estimate D2E/DX2                !
 ! A33   A(12,16,18)           102.4005         estimate D2E/DX2                !
 ! A34   A(17,16,18)           108.2651         estimate D2E/DX2                !
 ! A35   A(16,18,24)           123.7155         estimate D2E/DX2                !
 ! A36   A(5,19,20)            111.7932         estimate D2E/DX2                !
 ! A37   A(5,19,21)            108.2841         estimate D2E/DX2                !
 ! A38   A(5,19,22)            109.4825         estimate D2E/DX2                !
 ! A39   A(20,19,21)           108.784          estimate D2E/DX2                !
 ! A40   A(20,19,22)           106.6983         estimate D2E/DX2                !
 ! A41   A(21,19,22)           111.8304         estimate D2E/DX2                !
 ! A42   A(19,22,23)           106.4239         estimate D2E/DX2                !
 ! A43   A(18,24,25)           110.7771         estimate D2E/DX2                !
 ! A44   A(18,24,28)           109.3718         estimate D2E/DX2                !
 ! A45   A(18,24,29)           106.8416         estimate D2E/DX2                !
 ! A46   A(25,24,28)           109.105          estimate D2E/DX2                !
 ! A47   A(25,24,29)           109.3589         estimate D2E/DX2                !
 ! A48   A(28,24,29)           111.3773         estimate D2E/DX2                !
 ! A49   A(27,26,28)           109.5164         estimate D2E/DX2                !
 ! A50   A(27,26,37)           109.148          estimate D2E/DX2                !
 ! A51   A(27,26,41)           109.4245         estimate D2E/DX2                !
 ! A52   A(28,26,37)           110.2082         estimate D2E/DX2                !
 ! A53   A(28,26,41)           106.8932         estimate D2E/DX2                !
 ! A54   A(37,26,41)           111.6121         estimate D2E/DX2                !
 ! A55   A(24,28,26)           113.3449         estimate D2E/DX2                !
 ! A56   A(24,29,30)           107.928          estimate D2E/DX2                !
 ! A57   A(24,29,31)           111.4925         estimate D2E/DX2                !
 ! A58   A(24,29,33)           109.0297         estimate D2E/DX2                !
 ! A59   A(30,29,31)           111.6551         estimate D2E/DX2                !
 ! A60   A(30,29,33)           109.7205         estimate D2E/DX2                !
 ! A61   A(31,29,33)           106.987          estimate D2E/DX2                !
 ! A62   A(29,31,32)           108.0568         estimate D2E/DX2                !
 ! A63   A(29,33,34)           108.55           estimate D2E/DX2                !
 ! A64   A(29,33,35)           111.9627         estimate D2E/DX2                !
 ! A65   A(29,33,37)           110.0175         estimate D2E/DX2                !
 ! A66   A(34,33,35)           110.3567         estimate D2E/DX2                !
 ! A67   A(34,33,37)           108.519          estimate D2E/DX2                !
 ! A68   A(35,33,37)           107.3799         estimate D2E/DX2                !
 ! A69   A(33,35,36)           107.4397         estimate D2E/DX2                !
 ! A70   A(26,37,33)           109.9864         estimate D2E/DX2                !
 ! A71   A(26,37,38)           108.8609         estimate D2E/DX2                !
 ! A72   A(26,37,39)           107.8081         estimate D2E/DX2                !
 ! A73   A(33,37,38)           108.1664         estimate D2E/DX2                !
 ! A74   A(33,37,39)           110.9812         estimate D2E/DX2                !
 ! A75   A(38,37,39)           111.019          estimate D2E/DX2                !
 ! A76   A(37,39,40)           106.7611         estimate D2E/DX2                !
 ! A77   A(26,41,42)           108.5285         estimate D2E/DX2                !
 ! A78   A(26,41,43)           108.3721         estimate D2E/DX2                !
 ! A79   A(26,41,44)           111.9377         estimate D2E/DX2                !
 ! A80   A(42,41,43)           108.5494         estimate D2E/DX2                !
 ! A81   A(42,41,44)           107.7221         estimate D2E/DX2                !
 ! A82   A(43,41,44)           111.6342         estimate D2E/DX2                !
 ! A83   A(41,44,45)           107.1929         estimate D2E/DX2                !
 ! D1    D(2,1,3,4)           -169.1591         estimate D2E/DX2                !
 ! D2    D(7,1,3,4)             72.2027         estimate D2E/DX2                !
 ! D3    D(8,1,3,4)            -46.6695         estimate D2E/DX2                !
 ! D4    D(2,1,7,5)             53.4665         estimate D2E/DX2                !
 ! D5    D(3,1,7,5)            170.075          estimate D2E/DX2                !
 ! D6    D(8,1,7,5)            -66.4517         estimate D2E/DX2                !
 ! D7    D(2,1,8,9)            177.1449         estimate D2E/DX2                !
 ! D8    D(2,1,8,10)            55.6441         estimate D2E/DX2                !
 ! D9    D(2,1,8,12)           -65.7108         estimate D2E/DX2                !
 ! D10   D(3,1,8,9)             56.7469         estimate D2E/DX2                !
 ! D11   D(3,1,8,10)           -64.7539         estimate D2E/DX2                !
 ! D12   D(3,1,8,12)           173.8912         estimate D2E/DX2                !
 ! D13   D(7,1,8,9)            -63.3165         estimate D2E/DX2                !
 ! D14   D(7,1,8,10)           175.1827         estimate D2E/DX2                !
 ! D15   D(7,1,8,12)            53.8278         estimate D2E/DX2                !
 ! D16   D(6,5,7,1)            -47.345          estimate D2E/DX2                !
 ! D17   D(16,5,7,1)            70.5066         estimate D2E/DX2                !
 ! D18   D(19,5,7,1)          -162.4297         estimate D2E/DX2                !
 ! D19   D(6,5,16,12)           57.2885         estimate D2E/DX2                !
 ! D20   D(6,5,16,17)          177.5997         estimate D2E/DX2                !
 ! D21   D(6,5,16,18)          -56.7203         estimate D2E/DX2                !
 ! D22   D(7,5,16,12)          -59.9151         estimate D2E/DX2                !
 ! D23   D(7,5,16,17)           60.3961         estimate D2E/DX2                !
 ! D24   D(7,5,16,18)         -173.9238         estimate D2E/DX2                !
 ! D25   D(19,5,16,12)        -175.8942         estimate D2E/DX2                !
 ! D26   D(19,5,16,17)         -55.5831         estimate D2E/DX2                !
 ! D27   D(19,5,16,18)          70.097          estimate D2E/DX2                !
 ! D28   D(6,5,19,20)           55.1355         estimate D2E/DX2                !
 ! D29   D(6,5,19,21)          174.9594         estimate D2E/DX2                !
 ! D30   D(6,5,19,22)          -62.8789         estimate D2E/DX2                !
 ! D31   D(7,5,19,20)          170.5099         estimate D2E/DX2                !
 ! D32   D(7,5,19,21)          -69.6662         estimate D2E/DX2                !
 ! D33   D(7,5,19,22)           52.4955         estimate D2E/DX2                !
 ! D34   D(16,5,19,20)         -72.3081         estimate D2E/DX2                !
 ! D35   D(16,5,19,21)          47.5158         estimate D2E/DX2                !
 ! D36   D(16,5,19,22)         169.6775         estimate D2E/DX2                !
 ! D37   D(1,8,10,11)         -169.7885         estimate D2E/DX2                !
 ! D38   D(9,8,10,11)           70.8962         estimate D2E/DX2                !
 ! D39   D(12,8,10,11)         -49.5046         estimate D2E/DX2                !
 ! D40   D(1,8,12,13)           64.0411         estimate D2E/DX2                !
 ! D41   D(1,8,12,14)         -177.9548         estimate D2E/DX2                !
 ! D42   D(1,8,12,16)          -54.9438         estimate D2E/DX2                !
 ! D43   D(9,8,12,13)         -178.9622         estimate D2E/DX2                !
 ! D44   D(9,8,12,14)          -60.9581         estimate D2E/DX2                !
 ! D45   D(9,8,12,16)           62.0529         estimate D2E/DX2                !
 ! D46   D(10,8,12,13)         -56.5829         estimate D2E/DX2                !
 ! D47   D(10,8,12,14)          61.4212         estimate D2E/DX2                !
 ! D48   D(10,8,12,16)        -175.5678         estimate D2E/DX2                !
 ! D49   D(8,12,14,15)         170.2153         estimate D2E/DX2                !
 ! D50   D(13,12,14,15)        -72.798          estimate D2E/DX2                !
 ! D51   D(16,12,14,15)         46.0118         estimate D2E/DX2                !
 ! D52   D(8,12,16,5)           57.1558         estimate D2E/DX2                !
 ! D53   D(8,12,16,17)         -61.659          estimate D2E/DX2                !
 ! D54   D(8,12,16,18)        -177.3751         estimate D2E/DX2                !
 ! D55   D(13,12,16,5)         -62.5825         estimate D2E/DX2                !
 ! D56   D(13,12,16,17)        178.6027         estimate D2E/DX2                !
 ! D57   D(13,12,16,18)         62.8866         estimate D2E/DX2                !
 ! D58   D(14,12,16,5)         176.9328         estimate D2E/DX2                !
 ! D59   D(14,12,16,17)         58.118          estimate D2E/DX2                !
 ! D60   D(14,12,16,18)        -57.5981         estimate D2E/DX2                !
 ! D61   D(5,16,18,24)         -16.6703         estimate D2E/DX2                !
 ! D62   D(12,16,18,24)       -132.0695         estimate D2E/DX2                !
 ! D63   D(17,16,18,24)        109.6444         estimate D2E/DX2                !
 ! D64   D(16,18,24,25)         53.6694         estimate D2E/DX2                !
 ! D65   D(16,18,24,28)        -66.6272         estimate D2E/DX2                !
 ! D66   D(16,18,24,29)        172.7002         estimate D2E/DX2                !
 ! D67   D(5,19,22,23)         -49.3229         estimate D2E/DX2                !
 ! D68   D(20,19,22,23)       -170.4722         estimate D2E/DX2                !
 ! D69   D(21,19,22,23)         70.6909         estimate D2E/DX2                !
 ! D70   D(18,24,28,26)       -177.938          estimate D2E/DX2                !
 ! D71   D(25,24,28,26)         60.748          estimate D2E/DX2                !
 ! D72   D(29,24,28,26)        -60.07           estimate D2E/DX2                !
 ! D73   D(18,24,29,30)         57.2514         estimate D2E/DX2                !
 ! D74   D(18,24,29,31)        -65.7205         estimate D2E/DX2                !
 ! D75   D(18,24,29,33)        176.3782         estimate D2E/DX2                !
 ! D76   D(25,24,29,30)        177.1984         estimate D2E/DX2                !
 ! D77   D(25,24,29,31)         54.2265         estimate D2E/DX2                !
 ! D78   D(25,24,29,33)        -63.6748         estimate D2E/DX2                !
 ! D79   D(28,24,29,30)        -62.1325         estimate D2E/DX2                !
 ! D80   D(28,24,29,31)        174.8956         estimate D2E/DX2                !
 ! D81   D(28,24,29,33)         56.9943         estimate D2E/DX2                !
 ! D82   D(27,26,28,24)        -61.1523         estimate D2E/DX2                !
 ! D83   D(37,26,28,24)         58.9336         estimate D2E/DX2                !
 ! D84   D(41,26,28,24)       -179.6021         estimate D2E/DX2                !
 ! D85   D(27,26,37,33)         64.6199         estimate D2E/DX2                !
 ! D86   D(27,26,37,38)       -177.032          estimate D2E/DX2                !
 ! D87   D(27,26,37,39)        -56.5121         estimate D2E/DX2                !
 ! D88   D(28,26,37,33)        -55.6881         estimate D2E/DX2                !
 ! D89   D(28,26,37,38)         62.6601         estimate D2E/DX2                !
 ! D90   D(28,26,37,39)       -176.82           estimate D2E/DX2                !
 ! D91   D(41,26,37,33)       -174.3011         estimate D2E/DX2                !
 ! D92   D(41,26,37,38)        -55.953          estimate D2E/DX2                !
 ! D93   D(41,26,37,39)         64.5669         estimate D2E/DX2                !
 ! D94   D(27,26,41,42)         59.8882         estimate D2E/DX2                !
 ! D95   D(27,26,41,43)        177.5882         estimate D2E/DX2                !
 ! D96   D(27,26,41,44)        -58.8683         estimate D2E/DX2                !
 ! D97   D(28,26,41,42)        178.398          estimate D2E/DX2                !
 ! D98   D(28,26,41,43)        -63.902          estimate D2E/DX2                !
 ! D99   D(28,26,41,44)         59.6415         estimate D2E/DX2                !
 ! D100  D(37,26,41,42)        -61.0298         estimate D2E/DX2                !
 ! D101  D(37,26,41,43)         56.6702         estimate D2E/DX2                !
 ! D102  D(37,26,41,44)       -179.7863         estimate D2E/DX2                !
 ! D103  D(24,29,31,32)         61.3342         estimate D2E/DX2                !
 ! D104  D(30,29,31,32)        -59.482          estimate D2E/DX2                !
 ! D105  D(33,29,31,32)       -179.5421         estimate D2E/DX2                !
 ! D106  D(24,29,33,34)         63.6041         estimate D2E/DX2                !
 ! D107  D(24,29,33,35)       -174.3254         estimate D2E/DX2                !
 ! D108  D(24,29,33,37)        -55.0042         estimate D2E/DX2                !
 ! D109  D(30,29,33,34)       -178.3916         estimate D2E/DX2                !
 ! D110  D(30,29,33,35)        -56.3211         estimate D2E/DX2                !
 ! D111  D(30,29,33,37)         63.0002         estimate D2E/DX2                !
 ! D112  D(31,29,33,34)        -57.0999         estimate D2E/DX2                !
 ! D113  D(31,29,33,35)         64.9706         estimate D2E/DX2                !
 ! D114  D(31,29,33,37)       -175.7082         estimate D2E/DX2                !
 ! D115  D(29,33,35,36)        -56.7179         estimate D2E/DX2                !
 ! D116  D(34,33,35,36)         64.3133         estimate D2E/DX2                !
 ! D117  D(37,33,35,36)       -177.5799         estimate D2E/DX2                !
 ! D118  D(29,33,37,26)         55.1271         estimate D2E/DX2                !
 ! D119  D(29,33,37,38)        -63.6483         estimate D2E/DX2                !
 ! D120  D(29,33,37,39)        174.3372         estimate D2E/DX2                !
 ! D121  D(34,33,37,26)        -63.5002         estimate D2E/DX2                !
 ! D122  D(34,33,37,38)        177.7244         estimate D2E/DX2                !
 ! D123  D(34,33,37,39)         55.7099         estimate D2E/DX2                !
 ! D124  D(35,33,37,26)        177.2083         estimate D2E/DX2                !
 ! D125  D(35,33,37,38)         58.4329         estimate D2E/DX2                !
 ! D126  D(35,33,37,39)        -63.5816         estimate D2E/DX2                !
 ! D127  D(26,37,39,40)        170.2092         estimate D2E/DX2                !
 ! D128  D(33,37,39,40)         49.7001         estimate D2E/DX2                !
 ! D129  D(38,37,39,40)        -70.6359         estimate D2E/DX2                !
 ! D130  D(26,41,44,45)        -62.0909         estimate D2E/DX2                !
 ! D131  D(42,41,44,45)        178.6763         estimate D2E/DX2                !
 ! D132  D(43,41,44,45)         59.5965         estimate D2E/DX2                !
 --------------------------------------------------------------------------------
 Trust Radius=3.00D-01 FncErr=1.00D-07 GrdErr=1.00D-06 EigMax=2.50D+02 EigMin=1.00D-04
 Number of steps in this run=    270 maximum allowed number of steps=    270.
 GradGradGradGradGradGradGradGradGradGradGradGradGradGradGradGradGradGrad

 Leave Link  103 at Thu Mar 16 18:08:47 2023, MaxMem=   262144000 cpu:               0.1 elap:               0.0
 (Enter /dragofs/sw/campus/0.2/software/gaussian/16.gaussian/gaussian/g16_legacy/l202.exe)
                          Input orientation:                          
 ---------------------------------------------------------------------
 Center     Atomic      Atomic             Coordinates (Angstroms)
 Number     Number       Type             X           Y           Z
 ---------------------------------------------------------------------
      1          6           0       -3.928667   -0.416372   -0.584123
      2          1           0       -3.756107   -0.144706   -1.632443
      3          8           0       -5.146400   -1.053522   -0.534157
      4          1           0       -5.402473   -1.150919    0.388344
      5          6           0       -1.579230   -0.883083   -0.345922
      6          1           0       -1.478379   -0.507846   -1.375350
      7          8           0       -2.921927   -1.319733   -0.143999
      8          6           0       -3.832657    0.808631    0.307021
      9          1           0       -4.063451    0.495477    1.338501
     10          8           0       -4.728302    1.788994   -0.144023
     11          1           0       -4.520316    2.595137    0.340253
     12          6           0       -2.407716    1.328585    0.279961
     13          1           0       -2.177454    1.660409   -0.743984
     14          8           0       -2.380589    2.433173    1.163248
     15          1           0       -1.459345    2.682115    1.281751
     16          6           0       -1.362857    0.274785    0.658150
     17          1           0       -1.505833   -0.092268    1.677645
     18          8           0       -0.139499    1.025117    0.617470
     19          6           0       -0.769814   -2.170881   -0.219787
     20          1           0        0.264149   -2.026940   -0.513471
     21          1           0       -0.797784   -2.494876    0.832339
     22          8           0       -1.301513   -3.143990   -1.079770
     23          1           0       -2.251006   -3.159889   -0.919092
     24          6           0        1.007577    0.592608   -0.030793
     25          1           0        0.789420    0.333595   -1.082270
     26          6           0        2.731505   -1.035093    0.054654
     27          1           0        2.551589   -1.332005   -0.989601
     28          8           0        1.516292   -0.543943    0.628042
     29          6           0        1.997705    1.746011    0.009219
     30          1           0        2.158699    2.016810    1.060753
     31          8           0        1.541094    2.845755   -0.747610
     32          1           0        0.713830    3.148780   -0.363544
     33          6           0        3.304850    1.296184   -0.608403
     34          1           0        3.127656    1.057595   -1.667627
     35          8           0        4.310791    2.278097   -0.488118
     36          1           0        3.978261    3.083349   -0.897216
     37          6           0        3.805526    0.047385    0.089059
     38          1           0        4.019811    0.302656    1.137700
     39          8           0        4.950862   -0.462199   -0.550605
     40          1           0        5.559683    0.276108   -0.659767
     41          6           0        3.139199   -2.252188    0.861867
     42          1           0        4.049386   -2.665746    0.428928
     43          1           0        3.356195   -1.929501    1.889115
     44          8           0        2.155218   -3.257174    0.830827
     45          1           0        1.362718   -2.891363    1.233185
 ---------------------------------------------------------------------
                    Distance matrix (angstroms):
                    1          2          3          4          5
     1  C    0.000000
     2  H    1.096610   0.000000
     3  O    1.375256   1.991254   0.000000
     4  H    1.912421   2.794023   0.962324   0.000000
     5  C    2.407159   2.634223   3.576197   3.902316   0.000000
     6  H    2.576494   2.320778   3.802597   4.350020   1.100316
     7  O    1.422426   2.071717   2.274065   2.542636   1.426279
     8  C    1.517889   2.162460   2.429221   2.512125   2.892432
     9  H    2.132163   3.054636   2.660644   2.325166   3.302887
    10  O    2.386785   2.626738   2.899467   3.062843   4.134902
    11  H    3.205262   3.461544   3.803852   3.848824   4.606391
    12  C    2.470791   2.765146   3.719894   3.889506   2.443275
    13  H    2.721272   2.557332   4.027914   4.425661   2.643043
    14  O    3.683715   4.043933   4.763186   4.751629   3.730593
    15  H    4.379459   4.664607   5.553997   5.571228   3.921011
    16  C    2.933312   3.339227   4.183443   4.292310   1.547784
    17  H    3.330280   4.002895   4.366899   4.238731   2.173844
    18  O    4.228417   4.417063   5.542206   5.699695   2.577242
    19  C    3.631721   3.875426   4.527894   4.782434   1.526266
    20  H    4.492063   4.577921   5.497455   5.804420   2.175897
    21  H    4.016089   4.511111   4.780719   4.817314   2.144023
    22  O    3.819359   3.914867   4.410318   4.790153   2.393190
    23  H    3.233208   3.444637   3.601147   3.959431   2.442059
    24  C    5.068601   5.079528   6.390192   6.656148   2.994752
    25  H    4.803222   4.603616   6.120333   6.534985   2.762791
    26  C    6.719281   6.762263   7.899900   8.141644   4.331975
    27  H    6.557173   6.450578   7.716477   8.074567   4.204702
    28  O    5.579713   5.750424   6.782466   6.949474   3.262802
    29  C    6.336390   6.275047   7.692261   7.956040   4.453395
    30  H    6.758847   6.849116   8.083016   8.225446   4.935608
    31  O    6.370752   6.147042   7.744191   8.091781   4.878730
    32  H    5.857623   5.695392   7.213234   7.514114   4.638357
    33  C    7.433519   7.278869   8.772130   9.099412   5.354656
    34  H    7.289599   6.988058   8.614033   9.048074   5.260030
    35  O    8.669374   8.500253  10.026977  10.337980   6.686227
    36  H    8.652490   8.413165  10.025216  10.372071   6.849979
    37  C    7.777274   7.757497   9.040872   9.290466   5.481841
    38  H    8.164556   8.266724   9.415612   9.563151   5.912391
    39  O    8.879711   8.779663  10.114575  10.418613   6.546842
    40  H    9.513886   9.375880  10.789064  11.104225   7.239220
    41  C    7.444181   7.629437   8.487452   8.625380   5.059326
    42  H    8.350766   8.457577   9.385589   9.572564   5.954796
    43  H    7.840643   8.134599   8.884464   8.920357   5.518043
    44  O    6.861916   7.120317   7.748089   7.858167   4.578990
    45  H    6.117756   6.477524   6.990692   7.036385   3.896386
                    6          7          8          9         10
     6  H    0.000000
     7  O    2.063787   0.000000
     8  C    3.179011   2.358555   0.000000
     9  H    3.879980   2.606889   1.102398   0.000000
    10  O    4.165770   3.595438   1.402402   2.076798   0.000000
    11  H    4.671742   4.256237   1.914571   2.369345   0.963145
    12  C    2.641250   2.730887   1.517083   2.134487   2.403510
    13  H    2.364034   3.129771   2.137717   3.041512   2.623607
    14  O    3.988490   4.010766   2.341103   2.572432   2.763273
    15  H    4.151674   4.492961   3.176893   3.400878   3.676490
    16  C    2.181967   2.369943   2.551116   2.793705   3.776577
    17  H    3.081272   2.613499   2.846812   2.646105   4.152340
    18  O    2.848492   3.717534   3.712501   4.024649   4.713862
    19  C    2.145478   2.315553   4.305348   4.515060   5.599641
    20  H    2.467161   3.284468   5.049504   5.340460   6.294634
    21  H    3.047194   2.616521   4.516588   4.456792   5.895235
    22  O    2.658553   2.613297   4.894190   5.169338   6.078884
    23  H    2.799724   2.106437   4.444561   4.662980   5.588307
    24  C    3.032954   4.371598   4.856815   5.253544   5.860415
    25  H    2.436561   4.169885   4.849679   5.425559   5.783057
    26  C    4.477279   5.664078   6.822846   7.082537   7.978951
    27  H    4.131426   5.538463   6.857270   7.246965   7.965705
    28  O    3.603184   4.571180   5.526642   5.720024   6.710710
    29  C    4.368073   5.798710   5.912739   6.329964   6.727890
    30  H    5.053397   6.196508   6.158259   6.411454   6.995296
    31  O    4.556085   6.134671   5.842886   6.425464   6.386422
    32  H    4.381831   5.764940   5.157179   5.723582   5.613734
    33  C    5.169334   6.769893   7.212469   7.663121   8.061640
    34  H    4.873560   6.676121   7.239280   7.814397   8.035695
    35  O    6.485611   8.085481   8.313081   8.754553   9.058853
    36  H    6.549825   8.219919   8.224048   8.738687   8.834415
    37  C    5.511119   6.868912   7.679117   7.980144   8.712850
    38  H    6.099379   7.243109   7.912477   8.088054   8.965573
    39  O    6.482085   7.929786   8.916319   9.259790   9.945823
    40  H    7.117651   8.645833   9.456972   9.830865  10.411410
    41  C    5.419400   6.214377   7.634346   7.723666   8.901715
    42  H    6.202269   7.123145   8.614683   8.754358   9.860060
    43  H    6.004244   6.627231   7.853660   7.825269   9.127976
    44  O    5.062514   5.520993   7.256707   7.280932   8.590518
    45  H    4.534031   4.767058   6.445127   6.397272   7.804035
                   11         12         13         14         15
    11  H    0.000000
    12  C    2.463913   0.000000
    13  H    2.745594   1.100723   0.000000
    14  O    2.298257   1.414583   2.067840   0.000000
    15  H    3.203674   1.932624   2.379741   0.961616   0.000000
    16  C    3.931239   1.531421   2.132956   2.439168   2.488659
    17  H    4.254159   2.187633   3.063860   2.721701   2.802872
    18  O    4.661906   2.313183   2.531879   2.702403   2.220114
    19  C    6.090553   3.895989   4.115218   5.069980   5.126562
    20  H    6.706977   4.362103   4.428443   5.449645   5.326204
    21  H    6.325158   4.185195   4.653459   5.186563   5.238403
    22  O    6.731622   4.803799   4.895128   6.107396   6.288497
    23  H    6.313164   4.648514   4.824038   5.969529   6.292809
    24  C    5.891129   3.507486   3.434132   4.036469   3.489200
    25  H    5.944026   3.614880   3.267601   4.415828   4.020085
    26  C    8.114742   5.661213   5.656981   6.276253   5.734686
    27  H    8.197731   5.769336   5.601671   6.567930   6.112266
    28  O    6.810087   4.361807   4.515017   4.933087   4.437252
    29  C    6.581428   4.433428   4.243418   4.579676   3.800898
    30  H    6.742613   4.683528   4.710236   4.559495   3.685338
    31  O    6.163355   4.353253   3.902904   4.381917   3.625978
    32  H    5.310192   3.670321   3.274066   3.524006   2.765404
    33  C    7.988770   5.781319   5.496062   6.062649   5.309524
    34  H    8.055253   5.874256   5.418551   6.344039   5.690209
    35  O    8.875537   6.828606   6.522601   6.893883   6.048978
    36  H    8.602063   6.726488   6.319894   6.715893   5.871665
    37  C    8.710556   6.346833   6.252348   6.716687   6.006928
    38  H    8.878353   6.565162   6.617426   6.745730   5.975260
    39  O    9.992204   7.618754   7.440144   8.066638   7.371227
    40  H   10.391550   8.091368   7.860450   8.427588   7.669753
    41  C    9.079472   6.627882   6.793671   7.246482   6.757977
    42  H   10.056070   7.594145   7.672345   8.239101   7.724833
    43  H    9.214703   6.813749   7.102249   7.243652   6.695171
    44  O    8.891173   6.492535   6.740527   7.284511   6.967320
    45  H    8.093769   5.738708   6.095953   6.509065   6.247404
                   16         17         18         19         20
    16  C    0.000000
    17  H    1.092950   0.000000
    18  O    1.435708   2.058978   0.000000
    19  C    2.665287   2.909056   3.363436   0.000000
    20  H    3.052504   3.417131   3.279788   1.084458   0.000000
    21  H    2.832079   2.643558   3.587459   1.101238   1.777040
    22  O    3.835642   4.118020   4.648909   1.403287   2.004942
    23  H    3.882459   4.087618   4.932926   1.913399   2.788208
    24  C    2.488898   3.115292   1.386756   3.291156   2.765447
    25  H    2.768541   3.614786   2.056747   3.073677   2.484264
    26  C    4.340943   4.634442   3.578253   3.691147   2.719259
    27  H    4.540897   5.011369   3.921818   3.511132   2.437625
    28  O    2.993446   3.230931   2.281163   2.931215   2.251709
    29  C    3.725452   4.293914   2.336086   4.801421   4.184923
    30  H    3.949443   4.272887   2.541981   5.268086   4.734914
    31  O    4.125407   4.878279   2.828879   5.548471   5.042675
    32  H    3.690032   4.426934   2.490081   5.524551   5.197381
    33  C    4.943167   5.504224   3.666031   5.364182   4.505333
    34  H    5.117298   5.829430   3.987107   5.263988   4.364184
    35  O    6.125151   6.643965   4.753669   6.758547   5.908409
    36  H    6.231752   6.840303   4.846291   7.114075   6.329055
    37  C    5.204590   5.545597   4.098585   5.094097   4.148158
    38  H    5.404060   5.565990   4.253522   5.558927   4.717879
    39  O    6.470493   6.840384   5.430312   5.979563   4.941161
    40  H    7.046876   7.451222   5.888380   6.800285   5.776514
    41  C    5.166779   5.187203   4.642232   4.056719   3.195028
    42  H    6.163736   6.248403   5.586123   4.887782   3.952747
    43  H    5.351972   5.201871   4.750445   4.640009   3.916971
    44  O    4.988126   4.912945   4.863051   3.292360   2.626167
    45  H    4.217098   4.032501   4.239643   2.679163   2.237161
                   21         22         23         24         25
    21  H    0.000000
    22  O    2.081166   0.000000
    23  H    2.370993   0.963124   0.000000
    24  C    3.679250   4.516017   5.048631   0.000000
    25  H    3.766323   4.057783   4.634139   1.104665   0.000000
    26  C    3.897646   4.690373   5.503486   2.372475   2.633932
    27  H    3.986231   4.258851   5.139168   2.647153   2.426531
    28  O    3.033616   4.197248   4.840385   1.408759   2.055136
    29  C    5.145620   5.998570   6.556002   1.520623   2.155509
    30  H    5.398914   6.571816   7.082619   2.131878   3.049702
    31  O    6.040607   6.638357   7.104730   2.423868   2.643475
    32  H    5.963721   6.646318   6.992724   2.594422   2.906466
    33  C    5.768837   6.415287   7.128860   2.471056   2.734687
    34  H    5.854824   6.133223   6.875862   2.718487   2.516777
    35  O    7.114943   7.826049   8.533148   3.736475   4.066222
    36  H    7.544439   8.166339   8.819426   3.972335   4.214748
    37  C    5.310934   6.134565   6.927088   2.853095   3.248203
    38  H    5.579306   6.716623   7.452701   3.243918   3.919777
    39  O    6.252299   6.823797   7.699365   4.114890   4.270077
    40  H    7.093809   7.677857   8.536989   4.606240   4.789282
    41  C    3.944566   4.928000   5.748917   3.665176   3.998425
    42  H    4.866929   5.580054   6.461910   4.481162   4.680507
    43  H    4.323421   5.655396   6.390664   3.945008   4.532005
    44  O    3.049807   3.951225   4.741992   4.108563   4.291732
    45  H    2.232857   3.537189   4.214665   3.723146   4.011279
                   26         27         28         29         30
    26  C    0.000000
    27  H    1.100452   0.000000
    28  O    1.430645   2.075970   0.000000
    29  C    2.876641   3.283080   2.420452   0.000000
    30  H    3.264116   3.946248   2.675328   1.097713   0.000000
    31  O    4.137836   4.305036   3.658290   1.410929   2.082970
    32  H    4.663764   4.883312   3.906839   1.937795   2.323279
    33  C    2.490627   2.760451   2.848474   1.514077   2.149197
    34  H    2.739075   2.549855   3.229785   2.136005   3.050087
    35  O    3.710253   4.047112   4.125403   2.425042   2.664352
    36  H    4.407042   4.641043   4.641654   2.555915   2.877838
    37  C    1.525275   2.153737   2.425029   2.481919   2.744971
    38  H    2.149952   3.058301   2.691484   2.728673   2.531399
    39  O    2.370673   2.589554   3.632102   3.729709   4.066711
    40  H    3.198161   3.426871   4.322030   3.910990   4.190098
    41  C    1.516287   2.149408   2.367826   4.244480   4.384664
    42  H    2.129770   2.456519   3.310326   4.883559   5.089227
    43  H    2.134350   3.048179   2.625894   4.346135   4.206370
    44  O    2.423261   2.679057   2.794811   5.072643   5.278995
    45  H    2.590029   2.964083   2.429025   4.838030   4.975287
                   31         32         33         34         35
    31  O    0.000000
    32  H    0.961091   0.000000
    33  C    2.351889   3.194597   0.000000
    34  H    2.561470   3.449673   1.100126   0.000000
    35  O    2.839154   3.702936   1.410865   2.068979   0.000000
    36  H    2.453287   3.308413   1.931542   2.328249   0.962480
    37  C    3.695746   4.402509   1.515463   2.136815   2.358920
    38  H    4.020670   4.613422   2.132403   3.039035   2.574941
    39  O    4.754775   5.570153   2.409275   2.623279   2.814750
    40  H    4.770729   5.641124   2.475372   2.746135   2.365831
    41  C    5.579729   6.046032   3.844487   4.165710   4.870171
    42  H    6.168664   6.750012   4.162605   4.371315   5.034967
    43  H    5.748911   6.151870   4.079862   4.650310   4.926091
    44  O    6.333589   6.673857   4.911833   5.079876   6.084845
    45  H    6.072058   6.281236   4.969796   5.208069   6.194944
                   36         37         38         39         40
    36  H    0.000000
    37  C    3.196819   0.000000
    38  H    3.445992   1.100331   0.000000
    39  O    3.692831   1.407352   2.074182   0.000000
    40  H    3.230771   1.920969   2.367023   0.963160   0.000000
    41  C    5.680348   2.515802   2.716393   2.912260   3.816594
    42  H    5.900492   2.745188   3.051990   2.574444   3.481488
    43  H    5.768819   2.711121   2.446944   3.263154   4.027017
    44  O    6.819960   3.767472   4.030294   4.187585   5.127995
    45  H    6.861258   3.989057   4.155841   4.685885   5.588439
                   41         42         43         44         45
    41  C    0.000000
    42  H    1.089453   0.000000
    43  H    1.098386   1.776152   0.000000
    44  O    1.406833   2.024644   2.079672   0.000000
    45  H    1.924138   2.813524   2.308544   0.961127   0.000000
 Stoichiometry    C12H22O11
 Framework group  C1[X(C12H22O11)]
 Deg. of freedom   129
 Full point group                 C1      NOp   1
 Largest Abelian subgroup         C1      NOp   1
 Largest concise Abelian subgroup C1      NOp   1
                         Standard orientation:                         
 ---------------------------------------------------------------------
 Center     Atomic      Atomic             Coordinates (Angstroms)
 Number     Number       Type             X           Y           Z
 ---------------------------------------------------------------------
      1          6           0        3.928667    0.416372   -0.584123
      2          1           0        3.756107    0.144706   -1.632443
      3          8           0        5.146400    1.053522   -0.534157
      4          1           0        5.402473    1.150919    0.388344
      5          6           0        1.579230    0.883083   -0.345922
      6          1           0        1.478379    0.507846   -1.375350
      7          8           0        2.921927    1.319733   -0.143999
      8          6           0        3.832657   -0.808631    0.307021
      9          1           0        4.063451   -0.495477    1.338501
     10          8           0        4.728302   -1.788994   -0.144023
     11          1           0        4.520316   -2.595137    0.340253
     12          6           0        2.407716   -1.328585    0.279961
     13          1           0        2.177454   -1.660409   -0.743984
     14          8           0        2.380589   -2.433173    1.163248
     15          1           0        1.459345   -2.682115    1.281751
     16          6           0        1.362857   -0.274785    0.658150
     17          1           0        1.505833    0.092268    1.677645
     18          8           0        0.139499   -1.025117    0.617470
     19          6           0        0.769814    2.170881   -0.219787
     20          1           0       -0.264149    2.026940   -0.513471
     21          1           0        0.797784    2.494876    0.832339
     22          8           0        1.301513    3.143990   -1.079770
     23          1           0        2.251006    3.159889   -0.919092
     24          6           0       -1.007577   -0.592608   -0.030793
     25          1           0       -0.789420   -0.333595   -1.082270
     26          6           0       -2.731505    1.035093    0.054654
     27          1           0       -2.551589    1.332005   -0.989601
     28          8           0       -1.516292    0.543943    0.628042
     29          6           0       -1.997705   -1.746011    0.009219
     30          1           0       -2.158699   -2.016810    1.060753
     31          8           0       -1.541094   -2.845755   -0.747610
     32          1           0       -0.713830   -3.148780   -0.363544
     33          6           0       -3.304850   -1.296184   -0.608403
     34          1           0       -3.127656   -1.057595   -1.667627
     35          8           0       -4.310791   -2.278097   -0.488118
     36          1           0       -3.978261   -3.083349   -0.897216
     37          6           0       -3.805526   -0.047385    0.089059
     38          1           0       -4.019811   -0.302656    1.137700
     39          8           0       -4.950862    0.462199   -0.550605
     40          1           0       -5.559683   -0.276108   -0.659767
     41          6           0       -3.139199    2.252188    0.861867
     42          1           0       -4.049386    2.665746    0.428928
     43          1           0       -3.356195    1.929501    1.889115
     44          8           0       -2.155218    3.257174    0.830827
     45          1           0       -1.362718    2.891363    1.233185
 ---------------------------------------------------------------------
 Rotational constants (GHZ):           0.4156506           0.1535280           0.1196013
 Leave Link  202 at Thu Mar 16 18:08:47 2023, MaxMem=   262144000 cpu:               0.0 elap:               0.0
 (Enter /dragofs/sw/campus/0.2/software/gaussian/16.gaussian/gaussian/g16_legacy/l301.exe)
 Standard basis: 6-311G(d,p) (5D, 7F)
 Ernie: Thresh=  0.10000D-02 Tol=  0.10000D-05 Strict=F.
 There are   569 symmetry adapted cartesian basis functions of A   symmetry.
 There are   546 symmetry adapted basis functions of A   symmetry.
   546 basis functions,   912 primitive gaussians,   569 cartesian basis functions
    91 alpha electrons       91 beta electrons
       nuclear repulsion energy      2321.9808656500 Hartrees.
 IExCor= 4336 DFT=T Ex+Corr=M062X ExCW=0 ScaHFX=  0.540000
 ScaDFX=  1.000000  1.000000  1.000000  1.000000 ScalE2=  1.000000  1.000000
 IRadAn=      5 IRanWt=     -1 IRanGd=            0 ICorTp=0 IEmpDi=  4
 NAtoms=   45 NActive=   45 NUniq=   45 SFac= 1.00D+00 NAtFMM=   60 NAOKFM=F Big=F
 Integral buffers will be    131072 words long.
 Raffenetti 2 integral format.
 Two-electron integral symmetry is turned on.
 Leave Link  301 at Thu Mar 16 18:08:47 2023, MaxMem=   262144000 cpu:               0.4 elap:               0.1
 (Enter /dragofs/sw/campus/0.2/software/gaussian/16.gaussian/gaussian/g16_legacy/l302.exe)
 NPDir=0 NMtPBC=     1 NCelOv=     1 NCel=       1 NClECP=     1 NCelD=      1
         NCelK=      1 NCelE2=     1 NClLst=     1 CellRange=     0.0.
 One-electron integrals computed using PRISM.
 One-electron integral symmetry used in STVInt
 NBasis=   546 RedAO= T EigKep=  7.27D-04  NBF=   546
 NBsUse=   546 1.00D-06 EigRej= -1.00D+00 NBFU=   546
 Precomputing XC quadrature grid using
 IXCGrd= 4 IRadAn=           5 IRanWt=          -1 IRanGd=           0 AccXCQ= 0.00D+00.
 Generated NRdTot=       0 NPtTot=           0 NUsed=           0 NTot=          32
 NSgBfM=   560   557   560   560   560 MxSgAt=    45 MxSgA2=    45.
 Leave Link  302 at Thu Mar 16 18:08:48 2023, MaxMem=   262144000 cpu:               5.9 elap:               0.8
 (Enter /dragofs/sw/campus/0.2/software/gaussian/16.gaussian/gaussian/g16_legacy/l303.exe)
 DipDrv:  MaxL=1.
 Leave Link  303 at Thu Mar 16 18:08:48 2023, MaxMem=   262144000 cpu:               0.4 elap:               0.1
 (Enter /dragofs/sw/campus/0.2/software/gaussian/16.gaussian/gaussian/g16_legacy/l401.exe)
 ExpMin= 1.03D-01 ExpMax= 8.59D+03 ExpMxC= 1.30D+03 IAcc=3 IRadAn=         5 AccDes= 0.00D+00
 Harris functional with IExCor= 1009 and IRadAn=       5 diagonalized for initial guess.
 HarFok:  IExCor= 1009 AccDes= 0.00D+00 IRadAn=         5 IDoV= 1 UseB2=F ITyADJ=14
 ICtDFT=  3500011 ScaDFX=  1.000000  1.000000  1.000000  1.000000
 FoFCou: FMM=F IPFlag=           0 FMFlag=      100000 FMFlg1=           0
         NFxFlg=           0 DoJE=T BraDBF=F KetDBF=T FulRan=T
         wScrn=  0.000000 ICntrl=       500 IOpCl=  0 I1Cent=   200000004 NGrid=           0
         NMat0=    1 NMatS0=      1 NMatT0=    0 NMatD0=    1 NMtDS0=    0 NMtDT0=    0
 Petite list used in FoFCou.
 Harris En= -1297.10652751768    
 JPrj=0 DoOrth=F DoCkMO=F.
 Leave Link  401 at Thu Mar 16 18:08:52 2023, MaxMem=   262144000 cpu:              35.9 elap:               4.5
 (Enter /dragofs/sw/campus/0.2/software/gaussian/16.gaussian/gaussian/g16_legacy/l502.exe)
 Integral symmetry usage will be decided dynamically.
 Closed shell SCF:
 Using DIIS extrapolation, IDIIS=  1040.
 NGot=   262144000 LenX=   261486196 LenY=   261161866
 Requested convergence on RMS density matrix=1.00D-08 within 128 cycles.
 Requested convergence on MAX density matrix=1.00D-06.
 Requested convergence on             energy=1.00D-06.
 No special actions if energy rises.
 Fock matrices will be formed incrementally for  20 cycles.
 Integral accuracy reduced to 1.0D-05 until final iterations.

 Cycle   1  Pass 0  IDiag  1:
 FoFJK:  IHMeth= 1 ICntrl=       0 DoSepK=F KAlg= 0 I1Cent=           0 FoldK=F
 IRaf= 750000000 NMat=       1 IRICut=       1 DoRegI=T DoRafI=F ISym2E= 0 IDoP0=0 IntGTp=1.
 FoFCou: FMM=F IPFlag=           0 FMFlag=      100000 FMFlg1=           0
         NFxFlg=           0 DoJE=F BraDBF=F KetDBF=F FulRan=T
         wScrn=  0.000000 ICntrl=         0 IOpCl=  0 I1Cent=           0 NGrid=           0
         NMat0=    1 NMatS0=      1 NMatT0=    0 NMatD0=    1 NMtDS0=    0 NMtDT0=    0
 Symmetry not used in FoFCou.
 E= -1297.31941781599    
 DIIS: error= 2.00D-02 at cycle   1 NSaved=   1.
 NSaved= 1 IEnMin= 1 EnMin= -1297.31941781599     IErMin= 1 ErrMin= 2.00D-02
 ErrMax= 2.00D-02  0.00D+00 EMaxC= 1.00D-01 BMatC= 8.55D-01 BMatP= 8.55D-01
 IDIUse=3 WtCom= 8.00D-01 WtEn= 2.00D-01
 Coeff-Com:  0.100D+01
 Coeff-En:   0.100D+01
 Coeff:      0.100D+01
 Gap=     0.410 Goal=   None    Shift=    0.000
 GapD=    0.410 DampG=2.000 DampE=0.500 DampFc=1.0000 IDamp=-1.
 RMSDP=2.59D-03 MaxDP=1.71D-01              OVMax= 1.13D-01

 Cycle   2  Pass 0  IDiag  1:
 RMSU=  2.58D-03    CP:  1.03D+00
 E= -1297.40328296080     Delta-E=       -0.083865144808 Rises=F Damp=F
 DIIS: error= 2.16D-02 at cycle   2 NSaved=   2.
 NSaved= 2 IEnMin= 2 EnMin= -1297.40328296080     IErMin= 1 ErrMin= 2.00D-02
 ErrMax= 2.16D-02  0.00D+00 EMaxC= 1.00D-01 BMatC= 6.13D-01 BMatP= 8.55D-01
 IDIUse=3 WtCom= 7.84D-01 WtEn= 2.16D-01
 Coeff-Com:  0.454D+00 0.546D+00
 Coeff-En:   0.448D+00 0.552D+00
 Coeff:      0.453D+00 0.547D+00
 Gap=     0.387 Goal=   None    Shift=    0.000
 RMSDP=1.47D-03 MaxDP=9.14D-02 DE=-8.39D-02 OVMax= 5.69D-02

 Cycle   3  Pass 0  IDiag  1:
 RMSU=  4.63D-04    CP:  1.01D+00  4.61D-01
 E= -1297.79683762472     Delta-E=       -0.393554663921 Rises=F Damp=F
 DIIS: error= 4.90D-03 at cycle   3 NSaved=   3.
 NSaved= 3 IEnMin= 3 EnMin= -1297.79683762472     IErMin= 3 ErrMin= 4.90D-03
 ErrMax= 4.90D-03  0.00D+00 EMaxC= 1.00D-01 BMatC= 2.31D-02 BMatP= 6.13D-01
 IDIUse=3 WtCom= 9.51D-01 WtEn= 4.90D-02
 Coeff-Com:  0.669D-01 0.189D+00 0.745D+00
 Coeff-En:   0.000D+00 0.000D+00 0.100D+01
 Coeff:      0.636D-01 0.179D+00 0.757D+00
 Gap=     0.385 Goal=   None    Shift=    0.000
 RMSDP=2.77D-04 MaxDP=1.11D-02 DE=-3.94D-01 OVMax= 1.36D-02

 Cycle   4  Pass 0  IDiag  1:
 RMSU=  1.91D-04    CP:  1.02D+00  5.17D-01  7.02D-01
 E= -1297.81020809103     Delta-E=       -0.013370466306 Rises=F Damp=F
 DIIS: error= 1.46D-03 at cycle   4 NSaved=   4.
 NSaved= 4 IEnMin= 4 EnMin= -1297.81020809103     IErMin= 4 ErrMin= 1.46D-03
 ErrMax= 1.46D-03  0.00D+00 EMaxC= 1.00D-01 BMatC= 2.86D-03 BMatP= 2.31D-02
 IDIUse=3 WtCom= 9.85D-01 WtEn= 1.46D-02
 Coeff-Com:  0.282D-02 0.468D-01 0.348D+00 0.603D+00
 Coeff-En:   0.000D+00 0.000D+00 0.572D-01 0.943D+00
 Coeff:      0.278D-02 0.462D-01 0.344D+00 0.607D+00
 Gap=     0.373 Goal=   None    Shift=    0.000
 RMSDP=1.05D-04 MaxDP=3.72D-03 DE=-1.34D-02 OVMax= 4.81D-03

 Cycle   5  Pass 0  IDiag  1:
 RMSU=  3.65D-05    CP:  1.01D+00  5.09D-01  8.04D-01  5.66D-01
 E= -1297.81270104026     Delta-E=       -0.002492949228 Rises=F Damp=F
 DIIS: error= 1.69D-04 at cycle   5 NSaved=   5.
 NSaved= 5 IEnMin= 5 EnMin= -1297.81270104026     IErMin= 5 ErrMin= 1.69D-04
 ErrMax= 1.69D-04  0.00D+00 EMaxC= 1.00D-01 BMatC= 3.97D-05 BMatP= 2.86D-03
 IDIUse=3 WtCom= 9.98D-01 WtEn= 1.69D-03
 Coeff-Com: -0.194D-02 0.526D-02 0.585D-01 0.164D+00 0.774D+00
 Coeff-En:   0.000D+00 0.000D+00 0.000D+00 0.000D+00 0.100D+01
 Coeff:     -0.194D-02 0.525D-02 0.584D-01 0.164D+00 0.774D+00
 Gap=     0.373 Goal=   None    Shift=    0.000
 RMSDP=1.47D-05 MaxDP=6.06D-04 DE=-2.49D-03 OVMax= 7.20D-04

 Cycle   6  Pass 0  IDiag  1:
 RMSU=  9.79D-06    CP:  1.01D+00  5.10D-01  8.05D-01  6.13D-01  8.44D-01
 E= -1297.81272808301     Delta-E=       -0.000027042752 Rises=F Damp=F
 DIIS: error= 9.62D-05 at cycle   6 NSaved=   6.
 NSaved= 6 IEnMin= 6 EnMin= -1297.81272808301     IErMin= 6 ErrMin= 9.62D-05
 ErrMax= 9.62D-05  0.00D+00 EMaxC= 1.00D-01 BMatC= 6.08D-06 BMatP= 3.97D-05
 IDIUse=1 WtCom= 1.00D+00 WtEn= 0.00D+00
 Coeff-Com: -0.105D-02 0.216D-03 0.105D-01 0.486D-01 0.350D+00 0.592D+00
 Coeff:     -0.105D-02 0.216D-03 0.105D-01 0.486D-01 0.350D+00 0.592D+00
 Gap=     0.372 Goal=   None    Shift=    0.000
 RMSDP=4.37D-06 MaxDP=2.83D-04 DE=-2.70D-05 OVMax= 2.70D-04

 Initial convergence to 1.0D-05 achieved.  Increase integral accuracy.
 Cycle   7  Pass 1  IDiag  1:
 E= -1297.81257873160     Delta-E=        0.000149351409 Rises=F Damp=F
 DIIS: error= 3.01D-05 at cycle   1 NSaved=   1.
 NSaved= 1 IEnMin= 1 EnMin= -1297.81257873160     IErMin= 1 ErrMin= 3.01D-05
 ErrMax= 3.01D-05  0.00D+00 EMaxC= 1.00D-01 BMatC= 1.22D-06 BMatP= 1.22D-06
 IDIUse=1 WtCom= 1.00D+00 WtEn= 0.00D+00
 Coeff-Com:  0.100D+01
 Coeff:      0.100D+01
 Gap=     0.373 Goal=   None    Shift=    0.000
 RMSDP=4.37D-06 MaxDP=2.83D-04 DE= 1.49D-04 OVMax= 1.70D-04

 Cycle   8  Pass 1  IDiag  1:
 RMSU=  1.43D-05    CP:  1.00D+00
 E= -1297.81257936274     Delta-E=       -0.000000631147 Rises=F Damp=F
 DIIS: error= 3.99D-05 at cycle   2 NSaved=   2.
 NSaved= 2 IEnMin= 2 EnMin= -1297.81257936274     IErMin= 1 ErrMin= 3.01D-05
 ErrMax= 3.99D-05  0.00D+00 EMaxC= 1.00D-01 BMatC= 7.55D-07 BMatP= 1.22D-06
 IDIUse=1 WtCom= 1.00D+00 WtEn= 0.00D+00
 Coeff-Com:  0.422D+00 0.578D+00
 Coeff:      0.422D+00 0.578D+00
 Gap=     0.372 Goal=   None    Shift=    0.000
 RMSDP=1.63D-06 MaxDP=1.23D-04 DE=-6.31D-07 OVMax= 1.04D-04

 Cycle   9  Pass 1  IDiag  1:
 RMSU=  1.63D-06    CP:  1.00D+00  1.00D+00
 E= -1297.81257979918     Delta-E=       -0.000000436434 Rises=F Damp=F
 DIIS: error= 1.38D-05 at cycle   3 NSaved=   3.
 NSaved= 3 IEnMin= 3 EnMin= -1297.81257979918     IErMin= 3 ErrMin= 1.38D-05
 ErrMax= 1.38D-05  0.00D+00 EMaxC= 1.00D-01 BMatC= 1.01D-07 BMatP= 7.55D-07
 IDIUse=1 WtCom= 1.00D+00 WtEn= 0.00D+00
 Coeff-Com: -0.277D-01 0.258D+00 0.770D+00
 Coeff:     -0.277D-01 0.258D+00 0.770D+00
 Gap=     0.373 Goal=   None    Shift=    0.000
 RMSDP=5.47D-07 MaxDP=3.18D-05 DE=-4.36D-07 OVMax= 3.25D-05

 Cycle  10  Pass 1  IDiag  1:
 RMSU=  2.67D-07    CP:  1.00D+00  1.02D+00  7.68D-01
 E= -1297.81257986828     Delta-E=       -0.000000069106 Rises=F Damp=F
 DIIS: error= 6.53D-07 at cycle   4 NSaved=   4.
 NSaved= 4 IEnMin= 4 EnMin= -1297.81257986828     IErMin= 4 ErrMin= 6.53D-07
 ErrMax= 6.53D-07  0.00D+00 EMaxC= 1.00D-01 BMatC= 7.35D-10 BMatP= 1.01D-07
 IDIUse=1 WtCom= 1.00D+00 WtEn= 0.00D+00
 Coeff-Com: -0.115D-01 0.567D-01 0.191D+00 0.764D+00
 Coeff:     -0.115D-01 0.567D-01 0.191D+00 0.764D+00
 Gap=     0.373 Goal=   None    Shift=    0.000
 RMSDP=7.73D-08 MaxDP=2.69D-06 DE=-6.91D-08 OVMax= 4.47D-06

 Cycle  11  Pass 1  IDiag  1:
 RMSU=  7.42D-08    CP:  1.00D+00  1.02D+00  7.78D-01  9.69D-01
 E= -1297.81257986881     Delta-E=       -0.000000000523 Rises=F Damp=F
 DIIS: error= 4.17D-07 at cycle   5 NSaved=   5.
 NSaved= 5 IEnMin= 5 EnMin= -1297.81257986881     IErMin= 5 ErrMin= 4.17D-07
 ErrMax= 4.17D-07  0.00D+00 EMaxC= 1.00D-01 BMatC= 2.27D-10 BMatP= 7.35D-10
 IDIUse=1 WtCom= 1.00D+00 WtEn= 0.00D+00
 Coeff-Com: -0.107D-02-0.117D-01-0.268D-01 0.338D+00 0.702D+00
 Coeff:     -0.107D-02-0.117D-01-0.268D-01 0.338D+00 0.702D+00
 Gap=     0.373 Goal=   None    Shift=    0.000
 RMSDP=2.91D-08 MaxDP=1.52D-06 DE=-5.23D-10 OVMax= 1.55D-06

 Cycle  12  Pass 1  IDiag  1:
 RMSU=  1.80D-08    CP:  1.00D+00  1.02D+00  7.78D-01  1.05D+00  8.90D-01
 E= -1297.81257986901     Delta-E=       -0.000000000200 Rises=F Damp=F
 DIIS: error= 1.00D-07 at cycle   6 NSaved=   6.
 NSaved= 6 IEnMin= 6 EnMin= -1297.81257986901     IErMin= 6 ErrMin= 1.00D-07
 ErrMax= 1.00D-07  0.00D+00 EMaxC= 1.00D-01 BMatC= 1.60D-11 BMatP= 2.27D-10
 IDIUse=1 WtCom= 1.00D+00 WtEn= 0.00D+00
 Coeff-Com:  0.815D-03-0.104D-01-0.308D-01 0.503D-01 0.261D+00 0.729D+00
 Coeff:      0.815D-03-0.104D-01-0.308D-01 0.503D-01 0.261D+00 0.729D+00
 Gap=     0.373 Goal=   None    Shift=    0.000
 RMSDP=9.00D-09 MaxDP=4.08D-07 DE=-2.00D-10 OVMax= 5.99D-07

 SCF Done:  E(RM062X) =  -1297.81257987     A.U. after   12 cycles
            NFock= 12  Conv=0.90D-08     -V/T= 2.0029
 KE= 1.294082165383D+03 PE=-7.690964191085D+03 EE= 2.777088580182D+03
 Leave Link  502 at Thu Mar 16 18:11:33 2023, MaxMem=   262144000 cpu:            1283.9 elap:             160.9
 (Enter /dragofs/sw/campus/0.2/software/gaussian/16.gaussian/gaussian/g16_legacy/l601.exe)
 Copying SCF densities to generalized density rwf, IOpCl= 0 IROHF=0.

 **********************************************************************

            Population analysis using the SCF density.

 **********************************************************************

 Orbital symmetries:
       Occupied  (A) (A) (A) (A) (A) (A) (A) (A) (A) (A) (A) (A)
                 (A) (A) (A) (A) (A) (A) (A) (A) (A) (A) (A) (A)
                 (A) (A) (A) (A) (A) (A) (A) (A) (A) (A) (A) (A)
                 (A) (A) (A) (A) (A) (A) (A) (A) (A) (A) (A) (A)
                 (A) (A) (A) (A) (A) (A) (A) (A) (A) (A) (A) (A)
                 (A) (A) (A) (A) (A) (A) (A) (A) (A) (A) (A) (A)
                 (A) (A) (A) (A) (A) (A) (A) (A) (A) (A) (A) (A)
                 (A) (A) (A) (A) (A) (A) (A)
       Virtual   (A) (A) (A) (A) (A) (A) (A) (A) (A) (A) (A) (A)
                 (A) (A) (A) (A) (A) (A) (A) (A) (A) (A) (A) (A)
                 (A) (A) (A) (A) (A) (A) (A) (A) (A) (A) (A) (A)
                 (A) (A) (A) (A) (A) (A) (A) (A) (A) (A) (A) (A)
                 (A) (A) (A) (A) (A) (A) (A) (A) (A) (A) (A) (A)
                 (A) (A) (A) (A) (A) (A) (A) (A) (A) (A) (A) (A)
                 (A) (A) (A) (A) (A) (A) (A) (A) (A) (A) (A) (A)
                 (A) (A) (A) (A) (A) (A) (A) (A) (A) (A) (A) (A)
                 (A) (A) (A) (A) (A) (A) (A) (A) (A) (A) (A) (A)
                 (A) (A) (A) (A) (A) (A) (A) (A) (A) (A) (A) (A)
                 (A) (A) (A) (A) (A) (A) (A) (A) (A) (A) (A) (A)
                 (A) (A) (A) (A) (A) (A) (A) (A) (A) (A) (A) (A)
                 (A) (A) (A) (A) (A) (A) (A) (A) (A) (A) (A) (A)
                 (A) (A) (A) (A) (A) (A) (A) (A) (A) (A) (A) (A)
                 (A) (A) (A) (A) (A) (A) (A) (A) (A) (A) (A) (A)
                 (A) (A) (A) (A) (A) (A) (A) (A) (A) (A) (A) (A)
                 (A) (A) (A) (A) (A) (A) (A) (A) (A) (A) (A) (A)
                 (A) (A) (A) (A) (A) (A) (A) (A) (A) (A) (A) (A)
                 (A) (A) (A) (A) (A) (A) (A) (A) (A) (A) (A) (A)
                 (A) (A) (A) (A) (A) (A) (A) (A) (A) (A) (A) (A)
                 (A) (A) (A) (A) (A) (A) (A) (A) (A) (A) (A) (A)
                 (A) (A) (A) (A) (A) (A) (A) (A) (A) (A) (A) (A)
                 (A) (A) (A) (A) (A) (A) (A) (A) (A) (A) (A) (A)
                 (A) (A) (A) (A) (A) (A) (A) (A) (A) (A) (A) (A)
                 (A) (A) (A) (A) (A) (A) (A) (A) (A) (A) (A) (A)
                 (A) (A) (A) (A) (A) (A) (A) (A) (A) (A) (A) (A)
                 (A) (A) (A) (A) (A) (A) (A) (A) (A) (A) (A) (A)
                 (A) (A) (A) (A) (A) (A) (A) (A) (A) (A) (A) (A)
                 (A) (A) (A) (A) (A) (A) (A) (A) (A) (A) (A) (A)
                 (A) (A) (A) (A) (A) (A) (A) (A) (A) (A) (A) (A)
                 (A) (A) (A) (A) (A) (A) (A) (A) (A) (A) (A) (A)
                 (A) (A) (A) (A) (A) (A) (A) (A) (A) (A) (A) (A)
                 (A) (A) (A) (A) (A) (A) (A) (A) (A) (A) (A) (A)
                 (A) (A) (A) (A) (A) (A) (A) (A) (A) (A) (A) (A)
                 (A) (A) (A) (A) (A) (A) (A) (A) (A) (A) (A) (A)
                 (A) (A) (A) (A) (A) (A) (A) (A) (A) (A) (A) (A)
                 (A) (A) (A) (A) (A) (A) (A) (A) (A) (A) (A) (A)
                 (A) (A) (A) (A) (A) (A) (A) (A) (A) (A) (A)
 The electronic state is 1-A.
 Alpha  occ. eigenvalues --  -19.67041 -19.65873 -19.65165 -19.65142 -19.64240
 Alpha  occ. eigenvalues --  -19.63981 -19.63851 -19.63112 -19.62829 -19.61707
 Alpha  occ. eigenvalues --  -19.60873 -10.67334 -10.65626 -10.62651 -10.61932
 Alpha  occ. eigenvalues --  -10.61573 -10.61353 -10.60997 -10.60924 -10.60748
 Alpha  occ. eigenvalues --  -10.60624 -10.59046 -10.58858  -1.24138  -1.22373
 Alpha  occ. eigenvalues --   -1.19215  -1.18813  -1.17888  -1.16958  -1.16140
 Alpha  occ. eigenvalues --   -1.15439  -1.15220  -1.14570  -1.13619  -0.92680
 Alpha  occ. eigenvalues --   -0.91017  -0.88726  -0.88261  -0.81450  -0.78990
 Alpha  occ. eigenvalues --   -0.76576  -0.73869  -0.72600  -0.71903  -0.70411
 Alpha  occ. eigenvalues --   -0.69788  -0.65892  -0.64890  -0.64539  -0.62719
 Alpha  occ. eigenvalues --   -0.62347  -0.61385  -0.59743  -0.59176  -0.58879
 Alpha  occ. eigenvalues --   -0.57776  -0.57567  -0.56390  -0.55700  -0.54987
 Alpha  occ. eigenvalues --   -0.54397  -0.53566  -0.52736  -0.51513  -0.51192
 Alpha  occ. eigenvalues --   -0.50267  -0.49864  -0.49064  -0.47767  -0.47165
 Alpha  occ. eigenvalues --   -0.46808  -0.46388  -0.45639  -0.45277  -0.43905
 Alpha  occ. eigenvalues --   -0.43307  -0.43065  -0.42749  -0.41249  -0.40499
 Alpha  occ. eigenvalues --   -0.39590  -0.39319  -0.38829  -0.37721  -0.37225
 Alpha  occ. eigenvalues --   -0.36349  -0.36319  -0.35937  -0.35088  -0.34851
 Alpha  occ. eigenvalues --   -0.34476
 Alpha virt. eigenvalues --    0.02775   0.04943   0.05999   0.06704   0.07298
 Alpha virt. eigenvalues --    0.07577   0.08748   0.09433   0.10048   0.10479
 Alpha virt. eigenvalues --    0.10730   0.11483   0.12210   0.12618   0.13286
 Alpha virt. eigenvalues --    0.14339   0.14775   0.14867   0.15870   0.16243
 Alpha virt. eigenvalues --    0.17237   0.17765   0.18392   0.19111   0.19720
 Alpha virt. eigenvalues --    0.21394   0.21595   0.22222   0.23145   0.23644
 Alpha virt. eigenvalues --    0.24385   0.25045   0.25439   0.26108   0.26673
 Alpha virt. eigenvalues --    0.27778   0.29291   0.30307   0.30873   0.31992
 Alpha virt. eigenvalues --    0.32646   0.33748   0.34015   0.34830   0.36300
 Alpha virt. eigenvalues --    0.36467   0.39036   0.39987   0.40517   0.40639
 Alpha virt. eigenvalues --    0.40824   0.41977   0.42358   0.42930   0.43637
 Alpha virt. eigenvalues --    0.44233   0.45864   0.46092   0.46650   0.47224
 Alpha virt. eigenvalues --    0.48117   0.48825   0.49509   0.49890   0.50209
 Alpha virt. eigenvalues --    0.50465   0.50909   0.52213   0.53020   0.53864
 Alpha virt. eigenvalues --    0.54199   0.54418   0.55068   0.55614   0.55854
 Alpha virt. eigenvalues --    0.56301   0.57509   0.57732   0.58174   0.58945
 Alpha virt. eigenvalues --    0.60065   0.60924   0.61128   0.61655   0.62662
 Alpha virt. eigenvalues --    0.62909   0.63079   0.63330   0.64258   0.64769
 Alpha virt. eigenvalues --    0.65059   0.65317   0.66187   0.66583   0.66820
 Alpha virt. eigenvalues --    0.67909   0.68554   0.69185   0.70346   0.70875
 Alpha virt. eigenvalues --    0.71711   0.74213   0.75805   0.77770   0.78966
 Alpha virt. eigenvalues --    0.81519   0.84849   0.85119   0.85913   0.87265
 Alpha virt. eigenvalues --    0.87866   0.88415   0.89672   0.90348   0.90973
 Alpha virt. eigenvalues --    0.93017   0.93239   0.93934   0.94278   0.94782
 Alpha virt. eigenvalues --    0.95641   0.96142   0.97429   0.98273   0.99624
 Alpha virt. eigenvalues --    0.99990   1.00256   1.00659   1.01891   1.03275
 Alpha virt. eigenvalues --    1.03370   1.04099   1.05154   1.06611   1.06992
 Alpha virt. eigenvalues --    1.07600   1.10155   1.10888   1.11522   1.12334
 Alpha virt. eigenvalues --    1.13317   1.13617   1.13856   1.14728   1.15627
 Alpha virt. eigenvalues --    1.16609   1.17314   1.18755   1.19597   1.21644
 Alpha virt. eigenvalues --    1.22355   1.24277   1.24868   1.25739   1.27173
 Alpha virt. eigenvalues --    1.29194   1.30189   1.31277   1.32059   1.33936
 Alpha virt. eigenvalues --    1.35505   1.38083   1.38782   1.39881   1.41517
 Alpha virt. eigenvalues --    1.42113   1.43459   1.43886   1.44487   1.45357
 Alpha virt. eigenvalues --    1.46916   1.47522   1.48527   1.48826   1.49424
 Alpha virt. eigenvalues --    1.50559   1.51275   1.51678   1.51971   1.52695
 Alpha virt. eigenvalues --    1.53141   1.53709   1.55049   1.55630   1.55761
 Alpha virt. eigenvalues --    1.56290   1.56761   1.57683   1.58416   1.58960
 Alpha virt. eigenvalues --    1.59353   1.59800   1.59936   1.60947   1.61925
 Alpha virt. eigenvalues --    1.62913   1.63777   1.64325   1.64598   1.65677
 Alpha virt. eigenvalues --    1.66318   1.67244   1.67859   1.68496   1.69005
 Alpha virt. eigenvalues --    1.69585   1.70671   1.72247   1.73188   1.74402
 Alpha virt. eigenvalues --    1.74924   1.75570   1.78122   1.79047   1.79802
 Alpha virt. eigenvalues --    1.80408   1.80937   1.81433   1.81698   1.82596
 Alpha virt. eigenvalues --    1.83434   1.84191   1.86053   1.86489   1.87645
 Alpha virt. eigenvalues --    1.87987   1.89019   1.89936   1.91979   1.93005
 Alpha virt. eigenvalues --    1.93826   1.94316   1.95634   1.96306   1.97386
 Alpha virt. eigenvalues --    1.97856   1.99690   2.01114   2.01924   2.02755
 Alpha virt. eigenvalues --    2.03968   2.04214   2.05862   2.06010   2.07055
 Alpha virt. eigenvalues --    2.07419   2.08303   2.08776   2.10707   2.11389
 Alpha virt. eigenvalues --    2.11706   2.12700   2.14425   2.14846   2.15210
 Alpha virt. eigenvalues --    2.16742   2.17224   2.17889   2.18790   2.19904
 Alpha virt. eigenvalues --    2.21047   2.21195   2.22827   2.23991   2.25460
 Alpha virt. eigenvalues --    2.26321   2.28768   2.29552   2.31118   2.32496
 Alpha virt. eigenvalues --    2.33824   2.34138   2.40543   2.41279   2.43528
 Alpha virt. eigenvalues --    2.45394   2.45750   2.47057   2.49133   2.50417
 Alpha virt. eigenvalues --    2.50678   2.52428   2.53099   2.54248   2.54722
 Alpha virt. eigenvalues --    2.55268   2.56867   2.57423   2.58620   2.59093
 Alpha virt. eigenvalues --    2.60367   2.61114   2.63056   2.64477   2.66440
 Alpha virt. eigenvalues --    2.67357   2.75140   2.76393   2.77159   2.79712
 Alpha virt. eigenvalues --    2.80124   2.81231   2.81327   2.82963   2.85082
 Alpha virt. eigenvalues --    2.85402   2.86925   2.88348   2.89620   2.89950
 Alpha virt. eigenvalues --    2.92767   2.94652   2.95730   2.96781   2.97899
 Alpha virt. eigenvalues --    2.99220   2.99986   3.00634   3.01658   3.02656
 Alpha virt. eigenvalues --    3.03661   3.05063   3.05511   3.08094   3.10609
 Alpha virt. eigenvalues --    3.11502   3.12484   3.12983   3.13652   3.16371
 Alpha virt. eigenvalues --    3.17488   3.17603   3.18688   3.19840   3.20235
 Alpha virt. eigenvalues --    3.20962   3.21438   3.21816   3.22164   3.23032
 Alpha virt. eigenvalues --    3.23794   3.24021   3.25121   3.26475   3.27918
 Alpha virt. eigenvalues --    3.30084   3.31582   3.32468   3.32919   3.34422
 Alpha virt. eigenvalues --    3.35380   3.36530   3.37423   3.38833   3.40136
 Alpha virt. eigenvalues --    3.41045   3.41835   3.44094   3.44708   3.46748
 Alpha virt. eigenvalues --    3.47919   3.52806   3.53442   3.55123   3.58148
[...]
    31  O    0.000007  -0.000253   0.000002  -0.000000  -0.000000  -0.048591
    32  H   -0.000020   0.000007   0.000000   0.000000  -0.000000  -0.009214
    33  C   -0.000140   0.000245   0.000009   0.000000  -0.000000  -0.047870
    34  H    0.000015  -0.000566   0.000009   0.000001  -0.000000  -0.001716
    35  O    0.000000   0.000003  -0.000000   0.000000   0.000000   0.006980
    36  H   -0.000000   0.000003  -0.000000  -0.000000   0.000000   0.001671
    37  C    0.000408   0.000583   0.000028  -0.000000   0.000000   0.001338
    38  H    0.000003  -0.000087   0.000013  -0.000000  -0.000000  -0.000177
    39  O   -0.000000  -0.000039   0.000000  -0.000000  -0.000000  -0.000501
    40  H    0.000000   0.000004  -0.000000   0.000000   0.000000  -0.000314
    41  C   -0.000701  -0.000259  -0.000441   0.000001  -0.000000   0.004628
    42  H   -0.000011  -0.000010  -0.000066   0.000000   0.000000  -0.000135
    43  H   -0.000022  -0.000004   0.000301   0.000000  -0.000000  -0.001038
    44  O    0.000919   0.000473   0.005390   0.000012  -0.000008  -0.000936
    45  H    0.002427  -0.000430   0.000311  -0.000160  -0.000004  -0.000308
              25         26         27         28         29         30
     1  C   -0.000058   0.000000  -0.000000  -0.000001  -0.000000  -0.000001
     2  H    0.000006   0.000000  -0.000000  -0.000001   0.000001   0.000000
     3  O    0.000000   0.000000   0.000000   0.000000  -0.000000   0.000000
     4  H    0.000000  -0.000000  -0.000000   0.000000   0.000000   0.000000
     5  C    0.010529  -0.000356   0.000576  -0.010437  -0.000061   0.000208
     6  H   -0.000915  -0.000000  -0.000015   0.000245  -0.000561  -0.000018
     7  O   -0.000175   0.000002  -0.000001   0.000015   0.000002  -0.000001
     8  C    0.000040   0.000000   0.000000   0.000020   0.000008   0.000003
     9  H   -0.000010   0.000000  -0.000000  -0.000024   0.000000  -0.000001
    10  O   -0.000000   0.000000   0.000000   0.000000  -0.000000  -0.000000
    11  H    0.000000   0.000000  -0.000000   0.000000  -0.000000  -0.000000
    12  C   -0.001228  -0.000014  -0.000022   0.000205   0.000049  -0.000267
    13  H   -0.000209  -0.000000  -0.000001   0.000052  -0.000108  -0.000032
    14  O   -0.000014  -0.000001   0.000000  -0.000030   0.000021   0.000058
    15  H    0.000338   0.000011   0.000002   0.000064  -0.000142   0.000870
    16  C   -0.013299   0.000190  -0.000556   0.001859   0.006080  -0.000288
    17  H   -0.000235  -0.001123   0.000146   0.010100  -0.000522  -0.000115
    18  O   -0.048703   0.003559  -0.000093  -0.049027  -0.040154   0.002489
    19  C   -0.007325  -0.000029  -0.000330   0.011114   0.000912  -0.000065
    20  H   -0.006886   0.001174  -0.001828   0.001801   0.001749  -0.000242
    21  H   -0.000299   0.000841   0.000519  -0.001578  -0.000200   0.000007
    22  O   -0.000379  -0.000006  -0.000071   0.000035  -0.000002   0.000000
    23  H    0.000034  -0.000001  -0.000005  -0.000004   0.000003  -0.000000
    24  C    0.386631  -0.076561  -0.011615   0.219962   0.209425  -0.055945
    25  H    0.628843  -0.002372   0.012323  -0.058442  -0.064038   0.015054
    26  C   -0.002372   5.447187   0.380194   0.201982  -0.011039   0.001150
    27  H    0.012323   0.380194   0.553731  -0.042370   0.002827   0.000621
    28  O   -0.058442   0.201982  -0.042370   8.220755  -0.027098   0.002723
    29  C   -0.064038  -0.011039   0.002827  -0.027098   5.258509   0.384824
    30  H    0.015054   0.001150   0.000621   0.002723   0.384824   0.564094
    31  O    0.014124   0.000161  -0.000059   0.001853   0.247854  -0.035402
    32  H   -0.001148   0.000035   0.000022   0.000391  -0.040727  -0.005168
    33  C   -0.007425  -0.027958  -0.014835  -0.007388   0.208596  -0.049279
    34  H    0.007098  -0.002801   0.005795   0.000361  -0.045563   0.010035
    35  O   -0.000310   0.003212  -0.000178  -0.000061  -0.041699   0.004275
    36  H   -0.000138  -0.000848  -0.000078  -0.000028  -0.010805  -0.001531
    37  C   -0.003473   0.127579  -0.054178  -0.038371  -0.067230  -0.001161
    38  H    0.000339  -0.048855   0.010795   0.002572   0.001860   0.006958
    39  O    0.000035  -0.049344   0.009256   0.001405   0.006845  -0.000024
    40  H   -0.000036   0.011619  -0.000846  -0.000239   0.001563  -0.000066
    41  C    0.000949   0.290548  -0.028961  -0.040640  -0.001308  -0.000078
    42  H    0.000092  -0.040876  -0.006501   0.004155   0.000003   0.000014
    43  H    0.000075  -0.066656   0.011239  -0.001337  -0.000012   0.000002
    44  O   -0.000270  -0.039172   0.005284  -0.004382  -0.000021   0.000001
    45  H    0.000065  -0.009542  -0.002522   0.013835   0.000064  -0.000005
              31         32         33         34         35         36
     1  C   -0.000000  -0.000004  -0.000000   0.000000   0.000000   0.000000
     2  H   -0.000000  -0.000005  -0.000000   0.000000   0.000000   0.000000
     3  O   -0.000000  -0.000000  -0.000000   0.000000   0.000000  -0.000000
     4  H   -0.000000   0.000000   0.000000   0.000000  -0.000000  -0.000000
     5  C   -0.000107   0.000046   0.000047  -0.000014  -0.000000   0.000000
     6  H    0.000033   0.000178   0.000022  -0.000001  -0.000000  -0.000000
     7  O   -0.000000  -0.000000  -0.000000  -0.000000   0.000000   0.000000
     8  C   -0.000000   0.000021   0.000000  -0.000000   0.000000   0.000000
     9  H   -0.000000  -0.000000   0.000000   0.000000  -0.000000   0.000000
    10  O    0.000000  -0.000000   0.000000  -0.000000  -0.000000  -0.000000
    11  H   -0.000000  -0.000001  -0.000000   0.000000  -0.000000   0.000000
    12  C   -0.000027   0.000030   0.000006  -0.000001   0.000000   0.000000
    13  H    0.000034   0.000339   0.000004   0.000000  -0.000000  -0.000000
    14  O    0.000000   0.000021  -0.000000  -0.000000   0.000000   0.000000
    15  H    0.000034   0.000146   0.000043  -0.000000  -0.000001  -0.000001
    16  C    0.000180  -0.000894  -0.000151   0.000026   0.000001  -0.000001
    17  H   -0.000028   0.000164  -0.000110  -0.000009   0.000000   0.000000
    18  O   -0.002249   0.012900   0.003800  -0.000151  -0.000015  -0.000012
    19  C    0.000007  -0.000020  -0.000140   0.000015   0.000000  -0.000000
    20  H   -0.000253   0.000007   0.000245  -0.000566   0.000003   0.000003
    21  H    0.000002   0.000000   0.000009   0.000009  -0.000000  -0.000000
    22  O   -0.000000   0.000000   0.000000   0.000001   0.000000  -0.000000
    23  H   -0.000000  -0.000000  -0.000000  -0.000000   0.000000   0.000000
    24  C   -0.048591  -0.009214  -0.047870  -0.001716   0.006980   0.001671
    25  H    0.014124  -0.001148  -0.007425   0.007098  -0.000310  -0.000138
    26  C    0.000161   0.000035  -0.027958  -0.002801   0.003212  -0.000848
    27  H   -0.000059   0.000022  -0.014835   0.005795  -0.000178  -0.000078
    28  O    0.001853   0.000391  -0.007388   0.000361  -0.000061  -0.000028
    29  C    0.247854  -0.040727   0.208596  -0.045563  -0.041699  -0.010805
    30  H   -0.035402  -0.005168  -0.049279   0.010035   0.004275  -0.001531
    31  O    7.959218   0.323867  -0.047165   0.001480  -0.001905   0.013959
    32  H    0.323867   0.439580   0.010049  -0.000650  -0.000425  -0.000703
    33  C   -0.047165   0.010049   5.301317   0.379079   0.243752  -0.040937
    34  H    0.001480  -0.000650   0.379079   0.560320  -0.035938  -0.004773
    35  O   -0.001905  -0.000425   0.243752  -0.035938   7.967126   0.325353
    36  H    0.013959  -0.000703  -0.040937  -0.004773   0.325353   0.430850
    37  C    0.004135  -0.000701   0.213596  -0.049047  -0.049697   0.012319
    38  H   -0.000227  -0.000020  -0.055936   0.011055   0.003328  -0.000786
    39  O   -0.000016   0.000007  -0.030085   0.005946  -0.003682  -0.000451
    40  H   -0.000021   0.000006  -0.005488  -0.001407   0.016097  -0.000897
    41  C    0.000008  -0.000001   0.006346  -0.000713  -0.000053   0.000024
    42  H    0.000000  -0.000000   0.000088   0.000015  -0.000004   0.000002
    43  H    0.000001   0.000001  -0.000359  -0.000071  -0.000009  -0.000002
    44  O    0.000000   0.000000  -0.000174   0.000001   0.000000  -0.000000
    45  H   -0.000001   0.000000   0.000026  -0.000005  -0.000000   0.000000
              37         38         39         40         41         42
     1  C    0.000000   0.000000   0.000000  -0.000000  -0.000000   0.000000
     2  H    0.000000  -0.000000  -0.000000  -0.000000   0.000000   0.000000
     3  O    0.000000  -0.000000   0.000000  -0.000000  -0.000000  -0.000000
     4  H   -0.000000  -0.000000   0.000000   0.000000   0.000000   0.000000
     5  C   -0.000089   0.000001   0.000000  -0.000000   0.000112  -0.000002
     6  H   -0.000016   0.000000   0.000000  -0.000000   0.000008  -0.000000
     7  O    0.000000  -0.000000  -0.000000   0.000000   0.000000   0.000000
     8  C   -0.000000  -0.000000   0.000000   0.000000   0.000000  -0.000000
     9  H   -0.000000  -0.000000   0.000000  -0.000000   0.000000  -0.000000
    10  O    0.000000   0.000000  -0.000000   0.000000  -0.000000   0.000000
    11  H    0.000000   0.000000  -0.000000   0.000000  -0.000000   0.000000
    12  C    0.000004  -0.000002  -0.000000   0.000000   0.000000   0.000000
    13  H   -0.000001   0.000000   0.000000  -0.000000   0.000001  -0.000000
    14  O   -0.000000  -0.000000  -0.000000  -0.000000   0.000000   0.000000
    15  H   -0.000011  -0.000007   0.000000   0.000000   0.000000  -0.000000
    16  C    0.000139  -0.000014  -0.000000  -0.000000  -0.000102   0.000002
    17  H    0.000148   0.000019  -0.000000   0.000000   0.000549   0.000011
    18  O   -0.000620  -0.000076   0.000000   0.000001  -0.000155   0.000004
    19  C    0.000408   0.000003  -0.000000   0.000000  -0.000701  -0.000011
    20  H    0.000583  -0.000087  -0.000039   0.000004  -0.000259  -0.000010
    21  H    0.000028   0.000013   0.000000  -0.000000  -0.000441  -0.000066
    22  O   -0.000000  -0.000000  -0.000000   0.000000   0.000001   0.000000
    23  H    0.000000  -0.000000  -0.000000   0.000000  -0.000000   0.000000
    24  C    0.001338  -0.000177  -0.000501  -0.000314   0.004628  -0.000135
    25  H   -0.003473   0.000339   0.000035  -0.000036   0.000949   0.000092
    26  C    0.127579  -0.048855  -0.049344   0.011619   0.290548  -0.040876
    27  H   -0.054178   0.010795   0.009256  -0.000846  -0.028961  -0.006501
    28  O   -0.038371   0.002572   0.001405  -0.000239  -0.040640   0.004155
    29  C   -0.067230   0.001860   0.006845   0.001563  -0.001308   0.000003
    30  H   -0.001161   0.006958  -0.000024  -0.000066  -0.000078   0.000014
    31  O    0.004135  -0.000227  -0.000016  -0.000021   0.000008   0.000000
    32  H   -0.000701  -0.000020   0.000007   0.000006  -0.000001  -0.000000
    33  C    0.213596  -0.055936  -0.030085  -0.005488   0.006346   0.000088
    34  H   -0.049047   0.011055   0.005946  -0.001407  -0.000713   0.000015
    35  O   -0.049697   0.003328  -0.003682   0.016097  -0.000053  -0.000004
    36  H    0.012319  -0.000786  -0.000451  -0.000897   0.000024   0.000002
    37  C    5.338711   0.383431   0.224318  -0.047149  -0.046463  -0.003889
    38  H    0.383431   0.572103  -0.033639  -0.004334  -0.010443   0.000172
    39  O    0.224318  -0.033639   7.960402   0.322360  -0.000805   0.011810
    40  H   -0.047149  -0.004334   0.322360   0.435391  -0.000303  -0.000199
    41  C   -0.046463  -0.010443  -0.000805  -0.000303   4.794724   0.401353
    42  H   -0.003889   0.000172   0.011810  -0.000199   0.401353   0.524714
    43  H    0.001863   0.006206  -0.000428  -0.000135   0.410266  -0.034404
    44  O    0.004951  -0.000037   0.000014   0.000011   0.282394  -0.027683
    45  H   -0.000582  -0.000180  -0.000017   0.000006  -0.046371   0.008863
              43         44         45
     1  C   -0.000000   0.000000  -0.000002
     2  H    0.000000   0.000000  -0.000003
     3  O   -0.000000  -0.000000   0.000000
     4  H    0.000000  -0.000000  -0.000001
     5  C    0.000025   0.000008  -0.000890
     6  H   -0.000000  -0.000009  -0.000017
     7  O    0.000000   0.000000  -0.000137
     8  C    0.000000  -0.000000   0.000003
     9  H   -0.000000   0.000000  -0.000037
    10  O    0.000000   0.000000  -0.000000
    11  H   -0.000000   0.000000   0.000000
    12  C   -0.000005   0.000001   0.000062
    13  H    0.000000   0.000000  -0.000007
    14  O    0.000000  -0.000000  -0.000008
    15  H    0.000002  -0.000000   0.000001
    16  C   -0.000045  -0.000019   0.001073
    17  H    0.000011   0.000104   0.000987
    18  O   -0.000008   0.000004  -0.000068
    19  C   -0.000022   0.000919   0.002427
    20  H   -0.000004   0.000473  -0.000430
    21  H    0.000301   0.005390   0.000311
    22  O    0.000000   0.000012  -0.000160
    23  H   -0.000000  -0.000008  -0.000004
    24  C   -0.001038  -0.000936  -0.000308
    25  H    0.000075  -0.000270   0.000065
    26  C   -0.066656  -0.039172  -0.009542
    27  H    0.011239   0.005284  -0.002522
    28  O   -0.001337  -0.004382   0.013835
    29  C   -0.000012  -0.000021   0.000064
    30  H    0.000002   0.000001  -0.000005
    31  O    0.000001   0.000000  -0.000001
    32  H    0.000001   0.000000   0.000000
    33  C   -0.000359  -0.000174   0.000026
    34  H   -0.000071   0.000001  -0.000005
    35  O   -0.000009   0.000000  -0.000000
    36  H   -0.000002  -0.000000   0.000000
    37  C    0.001863   0.004951  -0.000582
    38  H    0.006206  -0.000037  -0.000180
    39  O   -0.000428   0.000014  -0.000017
    40  H   -0.000135   0.000011   0.000006
    41  C    0.410266   0.282394  -0.046371
    42  H   -0.034404  -0.027683   0.008863
    43  H    0.593538  -0.037174  -0.011188
    44  O   -0.037174   7.891315   0.317136
    45  H   -0.011188   0.317136   0.476206
 Mulliken charges:
               1
     1  C    0.226097
     2  H    0.147342
     3  O   -0.372277
     4  H    0.251989
     5  C   -0.072976
     6  H    0.168268
     7  O   -0.413543
     8  C    0.013344
     9  H    0.139039
    10  O   -0.408174
    11  H    0.269422
    12  C   -0.046096
    13  H    0.155932
    14  O   -0.431724
    15  H    0.270624
    16  C    0.029373
    17  H    0.176203
    18  O   -0.439527
    19  C    0.001310
    20  H    0.143381
    21  H    0.127671
    22  O   -0.414784
    23  H    0.262731
    24  C    0.233136
    25  H    0.140812
    26  C   -0.091890
    27  H    0.171736
    28  O   -0.414042
    29  C    0.020096
    30  H    0.156305
    31  O   -0.430900
    32  H    0.271868
    33  C   -0.031726
    34  H    0.162192
    35  O   -0.436149
    36  H    0.277809
    37  C    0.049126
    38  H    0.155966
    39  O   -0.423368
    40  H    0.274377
    41  C   -0.014113
    42  H    0.162482
    43  H    0.129368
    44  O   -0.398132
    45  H    0.251423
 Sum of Mulliken charges =  -0.00000
 Mulliken charges with hydrogens summed into heavy atoms:
               1
     1  C    0.373439
     3  O   -0.120288
     5  C    0.095292
     7  O   -0.413543
     8  C    0.152383
    10  O   -0.138752
    12  C    0.109836
    14  O   -0.161100
    16  C    0.205576
    18  O   -0.439527
    19  C    0.272362
    22  O   -0.152052
    24  C    0.373948
    26  C    0.079846
    28  O   -0.414042
    29  C    0.176401
    31  O   -0.159032
    33  C    0.130465
    35  O   -0.158340
    37  C    0.205092
    39  O   -0.148991
    41  C    0.277736
    44  O   -0.146710
 Electronic spatial extent (au):  <R**2>=           8635.8685
 Charge=             -0.0000 electrons
 Dipole moment (field-independent basis, Debye):
    X=             -1.5778    Y=             -4.1193    Z=              1.2075  Tot=              4.5734
 Quadrupole moment (field-independent basis, Debye-Ang):
   XX=           -149.9696   YY=           -143.4307   ZZ=           -137.8568
   XY=              8.1008   XZ=              7.4054   YZ=              4.8248
 Traceless Quadrupole moment (field-independent basis, Debye-Ang):
   XX=             -6.2172   YY=              0.3217   ZZ=              5.8955
   XY=              8.1008   XZ=              7.4054   YZ=              4.8248
 Octapole moment (field-independent basis, Debye-Ang**2):
  XXX=           -104.0041  YYY=            -82.6570  ZZZ=             11.7315  XYY=             21.4824
  XXY=              9.7490  XXZ=             23.7414  XZZ=              4.4661  YZZ=            -17.7277
  YYZ=              4.1623  XYZ=             12.4584
 Hexadecapole moment (field-independent basis, Debye-Ang**3):
 XXXX=          -7992.3384 YYYY=          -2206.0805 ZZZZ=           -932.7319 XXXY=            247.9083
 XXXZ=            251.5395 YYYX=             92.5693 YYYZ=            -10.5748 ZZZX=             18.2283
 ZZZY=             21.5017 XXYY=          -1587.6567 XXZZ=          -1304.5414 YYZZ=           -550.7566
 XXYZ=             68.8093 YYXZ=             69.4564 ZZXY=              6.9472
 N-N= 2.320281139565D+03 E-N=-7.687626292065D+03  KE= 1.294103649756D+03
 No NMR shielding tensors so no spin-rotation constants.
 Leave Link  601 at Thu Mar 16 18:57:35 2023, MaxMem=   262144000 cpu:               1.7 elap:               0.2
 (Enter /dragofs/sw/campus/0.2/software/gaussian/16.gaussian/gaussian/g16_legacy/l9999.exe)
 1\1\GINC-DRAGO31070246\FOpt\RM062X\6-311G(d,p)\C12H22O11\JRAMOS\16-Mar
 -2023\0\\#p opt M062X/6-311g(d,p)\\Optimization 03-DIHEDRAL_PHI_PSI_14
 b/dimer14b_000_004.log\\0,1\C,-4.0221726294,-0.3786583939,-0.368495965
 8\H,-4.1199029362,0.1946187274,-1.2985931829\O,-5.1877249432,-1.093544
 3315,-0.2188281731\H,-5.2083777608,-1.4608871425,0.6703787021\C,-1.680
 6002126,-0.7322652196,-0.8351826704\H,-1.7668072194,-0.2205582754,-1.8
 056108418\O,-2.9387261453,-1.2928827223,-0.4708926016\C,-3.7131615137,
 0.5462137751,0.7989204981\H,-3.60293808,-0.0765647957,1.7016613055\O,-
 4.7490093402,1.4808757177,0.9442196346\H,-4.4296578055,2.1494718094,1.
 5596686505\C,-2.3967503455,1.2459703694,0.5256054242\H,-2.5313134386,1
 .8704069485,-0.3706940545\O,-2.1227457923,2.0579284056,1.64796593\H,-1
 .2753667321,2.4854698707,1.4916597091\C,-1.2591122436,0.2748306624,0.2
 442232066\H,-0.9953445746,-0.2548600004,1.16568578\O,-0.1866257327,1.1
 463178525,-0.1257499206\C,-0.7976744228,-1.969585663,-0.9809379105\H,0
 .2136209791,-1.7263320028,-1.299347782\H,-0.7363668296,-2.4588575394,0
 .0006697426\O,-1.334944332,-2.8283185438,-1.953290253\H,-2.2591108647,
 -2.9584709995,-1.715195065\C,1.0591597273,0.5886128916,-0.4040366886\H
 ,1.0455824386,0.0812342744,-1.3809443205\C,2.6571311734,-0.9606875721,
 0.3726847478\H,2.6253898209,-1.4741226586,-0.599352963\O,1.4007892291,
 -0.3196893895,0.6104421724\C,2.0668765823,1.7271923308,-0.4523274022\H
 ,2.0446083529,2.2402595281,0.5184372752\O,1.8030857852,2.6148054755,-1
 .5155284355\H,0.9195851611,2.9734992033,-1.3898553596\C,3.447242101,1.
 1453429054,-0.6876674944\H,3.4583440068,0.6674118452,-1.6785785097\O,4
 .4556070003,2.1289891662,-0.6071344505\H,4.239321714,2.8161867883,-1.2
 45464152\C,3.7620432272,0.088756533,0.3560851718\H,3.8012112963,0.5785
 091545,1.3404821102\O,4.9747424135,-0.5630799421,0.0661318534\H,5.6297
 814547,0.1250573291,-0.0918961396\C,2.8266006041,-1.9874796526,1.47350
 22443\H,3.7435149958,-2.5488297174,1.2983601585\H,2.9151431446,-1.4621
 322659,2.4340381328\O,1.753382935,-2.8996393449,1.4794432666\H,0.95236
 67517,-2.3773963906,1.5816956204\\Version=EM64L-G16RevA.03\State=1-A\H
 F=-1297.8213137\RMSD=9.230e-09\RMSF=9.106e-06\Dipole=0.5488751,1.65016
 36,0.461835\Quadrupole=-5.3937042,0.8034843,4.5902199,5.6731612,-5.155
 093,-3.9507096\PG=C01 [X(C12H22O11)]\\@


 IT IS A SIMPLE TASK TO MAKE THINGS COMPLEX,
 BUT A COMPLEX TASK TO MAKE THEM SIMPLE.
 Job cpu time:       0 days  6 hours 29 minutes  7.6 seconds.
 Elapsed time:       0 days  0 hours 48 minutes 48.0 seconds.
 File lengths (MBytes):  RWF=    189 Int=      0 D2E=      0 Chk=     24 Scr=      1
 Normal termination of Gaussian 16 at Thu Mar 16 18:57:35 2023.
