 Entering Gaussian System, Link 0=/dragofs/sw/campus/0.2/software/gaussian/16.gaussian/gaussian/g16_legacy/g16
 Input=dimer14b_000_008_opt.com
 Output=dimer14b_000_008_opt.log
 Initial command:
 /dragofs/sw/campus/0.2/software/gaussian/16.gaussian/gaussian/g16_legacy/l1.exe "/tmp/jramos/82086/Gau-2615678.inp" -scrdir="/tmp/jramos/82086/"
 Entering Link 1 = /dragofs/sw/campus/0.2/software/gaussian/16.gaussian/gaussian/g16_legacy/l1.exe PID=   2615679.
  
 Copyright (c) 1988,1990,1992,1993,1995,1998,2003,2009,2016,
            Gaussian, Inc.  All Rights Reserved.
  
 This is part of the Gaussian(R) 16 program.  It is based on
 the Gaussian(R) 09 system (copyright 2009, Gaussian, Inc.),
 the Gaussian(R) 03 system (copyright 2003, Gaussian, Inc.),
 the Gaussian(R) 98 system (copyright 1998, Gaussian, Inc.),
 the Gaussian(R) 94 system (copyright 1995, Gaussian, Inc.),
 the Gaussian 92(TM) system (copyright 1992, Gaussian, Inc.),
 the Gaussian 90(TM) system (copyright 1990, Gaussian, Inc.),
 the Gaussian 88(TM) system (copyright 1988, Gaussian, Inc.),
 the Gaussian 86(TM) system (copyright 1986, Carnegie Mellon
 University), and the Gaussian 82(TM) system (copyright 1983,
 Carnegie Mellon University). Gaussian is a federally registered
 trademark of Gaussian, Inc.
  
 This software contains proprietary and confidential information,
 including trade secrets, belonging to Gaussian, Inc.
  
 This software is provided under written license and may be
 used, copied, transmitted, or stored only in accord with that
 written license.
  
 The following legend is applicable only to US Government
 contracts under FAR:
  
                    RESTRICTED RIGHTS LEGEND
  
 Use, reproduction and disclosure by the US Government is
 subject to restrictions as set forth in subparagraphs (a)
 and (c) of the Commercial Computer Software - Restricted
 Rights clause in FAR 52.227-19.
  
 Gaussian, Inc.
 340 Quinnipiac St., Bldg. 40, Wallingford CT 06492
  
  
 ---------------------------------------------------------------
 Warning -- This program may not be used in any manner that
 competes with the business of Gaussian, Inc. or will provide
 assistance to any competitor of Gaussian, Inc.  The licensee
 of this program is prohibited from giving any competitor of
 Gaussian, Inc. access to this program.  By using this program,
 the user acknowledges that Gaussian, Inc. is engaged in the
 business of creating and licensing software in the field of
 computational chemistry and represents and warrants to the
 licensee that it is not a competitor of Gaussian, Inc. and that
 it will not use this program in any manner prohibited above.
 ---------------------------------------------------------------
  

 Cite this work as:
 Gaussian 16, Revision A.03,
 M. J. Frisch, G. W. Trucks, H. B. Schlegel, G. E. Scuseria, 
 M. A. Robb, J. R. Cheeseman, G. Scalmani, V. Barone, 
 G. A. Petersson, H. Nakatsuji, X. Li, M. Caricato, A. V. Marenich, 
 J. Bloino, B. G. Janesko, R. Gomperts, B. Mennucci, H. P. Hratchian, 
 J. V. Ortiz, A. F. Izmaylov, J. L. Sonnenberg, D. Williams-Young, 
 F. Ding, F. Lipparini, F. Egidi, J. Goings, B. Peng, A. Petrone, 
 T. Henderson, D. Ranasinghe, V. G. Zakrzewski, J. Gao, N. Rega, 
 G. Zheng, W. Liang, M. Hada, M. Ehara, K. Toyota, R. Fukuda, 
 J. Hasegawa, M. Ishida, T. Nakajima, Y. Honda, O. Kitao, H. Nakai, 
 T. Vreven, K. Throssell, J. A. Montgomery, Jr., J. E. Peralta, 
 F. Ogliaro, M. J. Bearpark, J. J. Heyd, E. N. Brothers, K. N. Kudin, 
 V. N. Staroverov, T. A. Keith, R. Kobayashi, J. Normand, 
 K. Raghavachari, A. P. Rendell, J. C. Burant, S. S. Iyengar, 
 J. Tomasi, M. Cossi, J. M. Millam, M. Klene, C. Adamo, R. Cammi, 
 J. W. Ochterski, R. L. Martin, K. Morokuma, O. Farkas, 
 J. B. Foresman, and D. J. Fox, Gaussian, Inc., Wallingford CT, 2016.
 
 ******************************************
 Gaussian 16:  EM64L-G16RevA.03 25-Dec-2016
                16-Mar-2023 
 ******************************************
 %chk=dimer14b_000_008_opt.chk
 %mem=2000MB
 %nproc=8
 Will use up to    8 processors via shared memory.
 ------------------------
 #p opt M062X/6-311g(d,p)
 ------------------------
 1/18=20,19=15,26=3,38=1/1,3;
 2/9=110,12=2,17=6,18=5,40=1/2;
 3/5=4,6=6,7=101,11=2,25=1,30=1,71=1,74=-55/1,2,3;
 4//1;
 5/5=2,38=5/2;
 6/7=2,8=2,9=2,10=2,28=1/1;
 7//1,2,3,16;
 1/18=20,19=15,26=3/3(2);
 2/9=110/2;
 99//99;
 2/9=110/2;
 3/5=4,6=6,7=101,11=2,25=1,30=1,71=1,74=-55/1,2,3;
 4/5=5,16=3,69=1/1;
 5/5=2,38=5/2;
 7//1,2,3,16;
 1/18=20,19=15,26=3/3(-5);
 2/9=110/2;
 6/7=2,8=2,9=2,10=2,19=2,28=1/1;
 99/9=1/99;
 Leave Link    1 at Thu Mar 16 18:55:26 2023, MaxMem=   262144000 cpu:               0.2 elap:               0.0
 (Enter /dragofs/sw/campus/0.2/software/gaussian/16.gaussian/gaussian/g16_legacy/l101.exe)
 ---------------------------------------------------------
 Optimization 03-DIHEDRAL_PHI_PSI_14b/dimer14b_000_008.log
 ---------------------------------------------------------
 Symbolic Z-matrix:
 Charge =  0 Multiplicity = 1
 C                     3.46229  -0.69089  -0.21628 
 H                     2.96691  -1.36413  -0.9283 
 O                     4.8105   -1.02968  -0.22878 
 H                     5.28131  -0.33771   0.24968 
 C                     1.96018   1.07377  -0.68351 
 H                     1.42131   0.43432  -1.39748 
 O                     3.32184   0.65393  -0.60455 
 C                     2.86678  -0.85612   1.17372 
 H                     3.4186   -0.19057   1.85646 
 O                     2.92846  -2.19403   1.6091 
 H                     3.83126  -2.50346   1.48172 
 C                     1.3985   -0.46246   1.19292 
 H                     0.85653  -1.15275   0.53403 
 O                     0.89902  -0.5348    2.51299 
 H                     1.13162  -1.40877   2.84669 
 C                     1.2679    0.96814   0.68288 
 H                     1.75603   1.63448   1.40184 
 O                    -0.06132   1.45929   0.50803 
 C                     2.00326   2.4897   -1.22383 
 H                     0.98752   2.86121  -1.3485 
 H                     2.52531   3.12459  -0.49355 
 O                     2.63274   2.52309  -2.48135 
 H                     3.47187   2.06325  -2.3779 
 C                    -1.1234    0.5669    0.55725 
 H                    -1.09883  -0.01769   1.48664 
 C                    -2.07015  -1.29764  -0.53456 
 H                    -2.02257  -1.85409   0.41314 
 O                    -1.04297  -0.30817  -0.55492 
 C                    -2.40702   1.37423   0.46708 
 H                    -2.38706   1.94106  -0.47325 
 O                    -2.57496   2.22365   1.57959 
 H                    -1.79947   2.79117   1.62873 
 C                    -3.57906   0.41105   0.45908 
 H                    -3.59226  -0.12272   1.42105 
 O                    -4.80804   1.07455   0.25224 
 H                    -4.87959   1.75836   0.92596 
 C                    -3.4255   -0.61136  -0.65319 
 H                    -3.46938  -0.08005  -1.61548 
 O                    -4.42656  -1.59873  -0.57485 
 H                    -5.26642  -1.13438  -0.49423 
 C                    -1.77588  -2.2423   -1.68288 
 H                    -2.47591  -3.07615  -1.65094 
 H                    -1.91438  -1.70417  -2.62982 
 O                    -0.47047  -2.76751  -1.57584 
 H                     0.12435  -2.01247  -1.60181 
 
 ITRead=  0  0  0  0  0  0  0  0  0  0  0  0  0  0  0  0  0  0  0  0
 ITRead=  0  0  0  0  0  0  0  0  0  0  0  0  0  0  0  0  0  0  0  0
 ITRead=  0  0  0  0  0
 MicOpt= -1 -1 -1 -1 -1 -1 -1 -1 -1 -1 -1 -1 -1 -1 -1 -1 -1 -1 -1 -1
 MicOpt= -1 -1 -1 -1 -1 -1 -1 -1 -1 -1 -1 -1 -1 -1 -1 -1 -1 -1 -1 -1
 MicOpt= -1 -1 -1 -1 -1
 NAtoms=     45 NQM=       45 NQMF=       0 NMMI=      0 NMMIF=      0
                NMic=       0 NMicF=      0.
                    Isotopes and Nuclear Properties:
 (Nuclear quadrupole moments (NQMom) in fm**2, nuclear magnetic moments (NMagM)
  in nuclear magnetons)

  Atom         1           2           3           4           5           6           7           8           9          10
 IAtWgt=          12           1          16           1          12           1          16          12           1          16
 AtmWgt=  12.0000000   1.0078250  15.9949146   1.0078250  12.0000000   1.0078250  15.9949146  12.0000000   1.0078250  15.9949146
 NucSpn=           0           1           0           1           0           1           0           0           1           0
 AtZEff=  -0.0000000  -0.0000000  -0.0000000  -0.0000000  -0.0000000  -0.0000000  -0.0000000  -0.0000000  -0.0000000  -0.0000000
 NQMom=    0.0000000   0.0000000   0.0000000   0.0000000   0.0000000   0.0000000   0.0000000   0.0000000   0.0000000   0.0000000
 NMagM=    0.0000000   2.7928460   0.0000000   2.7928460   0.0000000   2.7928460   0.0000000   0.0000000   2.7928460   0.0000000
 AtZNuc=   6.0000000   1.0000000   8.0000000   1.0000000   6.0000000   1.0000000   8.0000000   6.0000000   1.0000000   8.0000000

  Atom        11          12          13          14          15          16          17          18          19          20
 IAtWgt=           1          12           1          16           1          12           1          16          12           1
 AtmWgt=   1.0078250  12.0000000   1.0078250  15.9949146   1.0078250  12.0000000   1.0078250  15.9949146  12.0000000   1.0078250
 NucSpn=           1           0           1           0           1           0           1           0           0           1
 AtZEff=  -0.0000000  -0.0000000  -0.0000000  -0.0000000  -0.0000000  -0.0000000  -0.0000000  -0.0000000  -0.0000000  -0.0000000
 NQMom=    0.0000000   0.0000000   0.0000000   0.0000000   0.0000000   0.0000000   0.0000000   0.0000000   0.0000000   0.0000000
 NMagM=    2.7928460   0.0000000   2.7928460   0.0000000   2.7928460   0.0000000   2.7928460   0.0000000   0.0000000   2.7928460
 AtZNuc=   1.0000000   6.0000000   1.0000000   8.0000000   1.0000000   6.0000000   1.0000000   8.0000000   6.0000000   1.0000000

  Atom        21          22          23          24          25          26          27          28          29          30
 IAtWgt=           1          16           1          12           1          12           1          16          12           1
 AtmWgt=   1.0078250  15.9949146   1.0078250  12.0000000   1.0078250  12.0000000   1.0078250  15.9949146  12.0000000   1.0078250
 NucSpn=           1           0           1           0           1           0           1           0           0           1
 AtZEff=  -0.0000000  -0.0000000  -0.0000000  -0.0000000  -0.0000000  -0.0000000  -0.0000000  -0.0000000  -0.0000000  -0.0000000
 NQMom=    0.0000000   0.0000000   0.0000000   0.0000000   0.0000000   0.0000000   0.0000000   0.0000000   0.0000000   0.0000000
 NMagM=    2.7928460   0.0000000   2.7928460   0.0000000   2.7928460   0.0000000   2.7928460   0.0000000   0.0000000   2.7928460
 AtZNuc=   1.0000000   8.0000000   1.0000000   6.0000000   1.0000000   6.0000000   1.0000000   8.0000000   6.0000000   1.0000000

  Atom        31          32          33          34          35          36          37          38          39          40
 IAtWgt=          16           1          12           1          16           1          12           1          16           1
 AtmWgt=  15.9949146   1.0078250  12.0000000   1.0078250  15.9949146   1.0078250  12.0000000   1.0078250  15.9949146   1.0078250
 NucSpn=           0           1           0           1           0           1           0           1           0           1
 AtZEff=  -0.0000000  -0.0000000  -0.0000000  -0.0000000  -0.0000000  -0.0000000  -0.0000000  -0.0000000  -0.0000000  -0.0000000
 NQMom=    0.0000000   0.0000000   0.0000000   0.0000000   0.0000000   0.0000000   0.0000000   0.0000000   0.0000000   0.0000000
 NMagM=    0.0000000   2.7928460   0.0000000   2.7928460   0.0000000   2.7928460   0.0000000   2.7928460   0.0000000   2.7928460
 AtZNuc=   8.0000000   1.0000000   6.0000000   1.0000000   8.0000000   1.0000000   6.0000000   1.0000000   8.0000000   1.0000000

  Atom        41          42          43          44          45
 IAtWgt=          12           1           1          16           1
 AtmWgt=  12.0000000   1.0078250   1.0078250  15.9949146   1.0078250
 NucSpn=           0           1           1           0           1
 AtZEff=  -0.0000000  -0.0000000  -0.0000000  -0.0000000  -0.0000000
 NQMom=    0.0000000   0.0000000   0.0000000   0.0000000   0.0000000
 NMagM=    0.0000000   2.7928460   2.7928460   0.0000000   2.7928460
 AtZNuc=   6.0000000   1.0000000   1.0000000   8.0000000   1.0000000
 Leave Link  101 at Thu Mar 16 18:55:26 2023, MaxMem=   262144000 cpu:               1.0 elap:               0.1
 (Enter /dragofs/sw/campus/0.2/software/gaussian/16.gaussian/gaussian/g16_legacy/l103.exe)

 GradGradGradGradGradGradGradGradGradGradGradGradGradGradGradGradGradGrad
 Berny optimization.
 Initialization pass.
                           ----------------------------
                           !    Initial Parameters    !
                           ! (Angstroms and Degrees)  !
 --------------------------                            --------------------------
 ! Name  Definition              Value          Derivative Info.                !
 --------------------------------------------------------------------------------
 ! R1    R(1,2)                  1.098          estimate D2E/DX2                !
 ! R2    R(1,3)                  1.3902         estimate D2E/DX2                !
 ! R3    R(1,7)                  1.4068         estimate D2E/DX2                !
 ! R4    R(1,8)                  1.5212         estimate D2E/DX2                !
 ! R5    R(3,4)                  0.9641         estimate D2E/DX2                !
 ! R6    R(5,6)                  1.0996         estimate D2E/DX2                !
 ! R7    R(5,7)                  1.4271         estimate D2E/DX2                !
 ! R8    R(5,16)                 1.5354         estimate D2E/DX2                !
 ! R9    R(5,19)                 1.5161         estimate D2E/DX2                !
 ! R10   R(8,9)                  1.1016         estimate D2E/DX2                !
 ! R11   R(8,10)                 1.4083         estimate D2E/DX2                !
 ! R12   R(8,12)                 1.5203         estimate D2E/DX2                !
 ! R13   R(10,11)                0.9628         estimate D2E/DX2                !
 ! R14   R(12,13)                1.0974         estimate D2E/DX2                !
 ! R15   R(12,14)                1.4133         estimate D2E/DX2                !
 ! R16   R(12,16)                1.5244         estimate D2E/DX2                !
 ! R17   R(14,15)                0.964          estimate D2E/DX2                !
 ! R18   R(16,17)                1.0951         estimate D2E/DX2                !
 ! R19   R(16,18)                1.4278         estimate D2E/DX2                !
 ! R20   R(18,24)                1.3881         estimate D2E/DX2                !
 ! R21   R(19,20)                1.0887         estimate D2E/DX2                !
 ! R22   R(19,21)                1.0995         estimate D2E/DX2                !
 ! R23   R(19,22)                1.4067         estimate D2E/DX2                !
 ! R24   R(22,23)                0.9624         estimate D2E/DX2                !
 ! R25   R(24,25)                1.0982         estimate D2E/DX2                !
 ! R26   R(24,28)                1.4174         estimate D2E/DX2                !
 ! R27   R(24,29)                1.5191         estimate D2E/DX2                !
 ! R28   R(26,27)                1.1            estimate D2E/DX2                !
 ! R29   R(26,28)                1.4264         estimate D2E/DX2                !
 ! R30   R(26,37)                1.5238         estimate D2E/DX2                !
 ! R31   R(26,41)                1.5158         estimate D2E/DX2                !
 ! R32   R(29,30)                1.0981         estimate D2E/DX2                !
 ! R33   R(29,31)                1.4098         estimate D2E/DX2                !
 ! R34   R(29,33)                1.5171         estimate D2E/DX2                !
 ! R35   R(31,32)                0.9622         estimate D2E/DX2                !
 ! R36   R(33,34)                1.1002         estimate D2E/DX2                !
 ! R37   R(33,35)                1.4119         estimate D2E/DX2                !
 ! R38   R(33,37)                1.5186         estimate D2E/DX2                !
 ! R39   R(35,36)                0.9626         estimate D2E/DX2                !
 ! R40   R(37,38)                1.1001         estimate D2E/DX2                !
 ! R41   R(37,39)                1.4083         estimate D2E/DX2                !
 ! R42   R(39,40)                0.9631         estimate D2E/DX2                !
 ! R43   R(41,42)                1.0892         estimate D2E/DX2                !
 ! R44   R(41,43)                1.0979         estimate D2E/DX2                !
 ! R45   R(41,44)                1.4112         estimate D2E/DX2                !
 ! R46   R(44,45)                0.9616         estimate D2E/DX2                !
 ! A1    A(2,1,3)              106.3967         estimate D2E/DX2                !
 ! A2    A(2,1,7)              111.2309         estimate D2E/DX2                !
 ! A3    A(2,1,8)              110.4454         estimate D2E/DX2                !
 ! A4    A(3,1,7)              109.106          estimate D2E/DX2                !
 ! A5    A(3,1,8)              111.1861         estimate D2E/DX2                !
 ! A6    A(7,1,8)              108.4783         estimate D2E/DX2                !
 ! A7    A(1,3,4)              107.1115         estimate D2E/DX2                !
 ! A8    A(6,5,7)              109.4172         estimate D2E/DX2                !
 ! A9    A(6,5,16)             108.4745         estimate D2E/DX2                !
 ! A10   A(6,5,19)             109.0042         estimate D2E/DX2                !
 ! A11   A(7,5,16)             111.1443         estimate D2E/DX2                !
 ! A12   A(7,5,19)             105.5068         estimate D2E/DX2                !
 ! A13   A(16,5,19)            113.2171         estimate D2E/DX2                !
 ! A14   A(1,7,5)              113.0648         estimate D2E/DX2                !
 ! A15   A(1,8,9)              107.7334         estimate D2E/DX2                !
 ! A16   A(1,8,10)             111.6251         estimate D2E/DX2                !
 ! A17   A(1,8,12)             111.1925         estimate D2E/DX2                !
 ! A18   A(9,8,10)             111.1256         estimate D2E/DX2                !
 ! A19   A(9,8,12)             108.6334         estimate D2E/DX2                !
 ! A20   A(10,8,12)            106.5225         estimate D2E/DX2                !
 ! A21   A(8,10,11)            107.7868         estimate D2E/DX2                !
 ! A22   A(8,12,13)            107.8489         estimate D2E/DX2                !
 ! A23   A(8,12,14)            109.8697         estimate D2E/DX2                !
 ! A24   A(8,12,16)            108.755          estimate D2E/DX2                !
 ! A25   A(13,12,14)           110.7366         estimate D2E/DX2                !
 ! A26   A(13,12,16)           110.3105         estimate D2E/DX2                !
 ! A27   A(14,12,16)           109.2855         estimate D2E/DX2                !
 ! A28   A(12,14,15)           106.527          estimate D2E/DX2                !
 ! A29   A(5,16,12)            108.8862         estimate D2E/DX2                !
 ! A30   A(5,16,17)            109.9646         estimate D2E/DX2                !
 ! A31   A(5,16,18)            106.6845         estimate D2E/DX2                !
 ! A32   A(12,16,17)           108.252          estimate D2E/DX2                !
 ! A33   A(12,16,18)           116.3304         estimate D2E/DX2                !
 ! A34   A(17,16,18)           106.6218         estimate D2E/DX2                !
 ! A35   A(16,18,24)           119.1318         estimate D2E/DX2                !
 ! A36   A(5,19,20)            109.4496         estimate D2E/DX2                !
 ! A37   A(5,19,21)            108.4246         estimate D2E/DX2                !
 ! A38   A(5,19,22)            110.7003         estimate D2E/DX2                !
 ! A39   A(20,19,21)           108.7831         estimate D2E/DX2                !
 ! A40   A(20,19,22)           107.8809         estimate D2E/DX2                !
 ! A41   A(21,19,22)           111.5669         estimate D2E/DX2                !
 ! A42   A(19,22,23)           106.4231         estimate D2E/DX2                !
 ! A43   A(18,24,25)           110.7995         estimate D2E/DX2                !
 ! A44   A(18,24,28)           109.0052         estimate D2E/DX2                !
 ! A45   A(18,24,29)           107.6239         estimate D2E/DX2                !
 ! A46   A(25,24,28)           109.5183         estimate D2E/DX2                !
 ! A47   A(25,24,29)           110.6121         estimate D2E/DX2                !
 ! A48   A(28,24,29)           109.237          estimate D2E/DX2                !
 ! A49   A(27,26,28)           109.3934         estimate D2E/DX2                !
 ! A50   A(27,26,37)           109.4733         estimate D2E/DX2                !
 ! A51   A(27,26,41)           109.2093         estimate D2E/DX2                !
 ! A52   A(28,26,37)           109.0857         estimate D2E/DX2                !
 ! A53   A(28,26,41)           106.3618         estimate D2E/DX2                !
 ! A54   A(37,26,41)           113.227          estimate D2E/DX2                !
 ! A55   A(24,28,26)           112.098          estimate D2E/DX2                !
 ! A56   A(24,29,30)           108.0472         estimate D2E/DX2                !
 ! A57   A(24,29,31)           111.9652         estimate D2E/DX2                !
 ! A58   A(24,29,33)           108.4041         estimate D2E/DX2                !
 ! A59   A(30,29,31)           111.5245         estimate D2E/DX2                !
 ! A60   A(30,29,33)           109.7091         estimate D2E/DX2                !
 ! A61   A(31,29,33)           107.1376         estimate D2E/DX2                !
 ! A62   A(29,31,32)           107.4368         estimate D2E/DX2                !
 ! A63   A(29,33,34)           108.2209         estimate D2E/DX2                !
 ! A64   A(29,33,35)           112.0184         estimate D2E/DX2                !
 ! A65   A(29,33,37)           110.6829         estimate D2E/DX2                !
 ! A66   A(34,33,35)           110.2204         estimate D2E/DX2                !
 ! A67   A(34,33,37)           108.3606         estimate D2E/DX2                !
 ! A68   A(35,33,37)           107.2844         estimate D2E/DX2                !
 ! A69   A(33,35,36)           107.217          estimate D2E/DX2                !
 ! A70   A(26,37,33)           109.642          estimate D2E/DX2                !
 ! A71   A(26,37,38)           108.7293         estimate D2E/DX2                !
 ! A72   A(26,37,39)           108.1894         estimate D2E/DX2                !
 ! A73   A(33,37,38)           108.1492         estimate D2E/DX2                !
 ! A74   A(33,37,39)           111.0647         estimate D2E/DX2                !
 ! A75   A(38,37,39)           111.0346         estimate D2E/DX2                !
 ! A76   A(37,39,40)           106.6491         estimate D2E/DX2                !
 ! A77   A(26,41,42)           109.2765         estimate D2E/DX2                !
 ! A78   A(26,41,43)           108.8707         estimate D2E/DX2                !
 ! A79   A(26,41,44)           110.7365         estimate D2E/DX2                !
 ! A80   A(42,41,43)           108.6296         estimate D2E/DX2                !
 ! A81   A(42,41,44)           107.9015         estimate D2E/DX2                !
 ! A82   A(43,41,44)           111.3782         estimate D2E/DX2                !
 ! A83   A(41,44,45)           106.1381         estimate D2E/DX2                !
 ! D1    D(2,1,3,4)            168.7347         estimate D2E/DX2                !
 ! D2    D(7,1,3,4)             48.6411         estimate D2E/DX2                !
 ! D3    D(8,1,3,4)            -70.9626         estimate D2E/DX2                !
 ! D4    D(2,1,7,5)             60.0744         estimate D2E/DX2                !
 ! D5    D(3,1,7,5)            177.1437         estimate D2E/DX2                !
 ! D6    D(8,1,7,5)            -61.5902         estimate D2E/DX2                !
 ! D7    D(2,1,8,9)            177.9529         estimate D2E/DX2                !
 ! D8    D(2,1,8,10)            55.6892         estimate D2E/DX2                !
 ! D9    D(2,1,8,12)           -63.1152         estimate D2E/DX2                !
 ! D10   D(3,1,8,9)             60.0745         estimate D2E/DX2                !
 ! D11   D(3,1,8,10)           -62.1891         estimate D2E/DX2                !
 ! D12   D(3,1,8,12)           179.0064         estimate D2E/DX2                !
 ! D13   D(7,1,8,9)            -59.9024         estimate D2E/DX2                !
 ! D14   D(7,1,8,10)           177.834          estimate D2E/DX2                !
 ! D15   D(7,1,8,12)            59.0295         estimate D2E/DX2                !
 ! D16   D(6,5,7,1)            -58.139          estimate D2E/DX2                !
 ! D17   D(16,5,7,1)            61.6346         estimate D2E/DX2                !
 ! D18   D(19,5,7,1)          -175.276          estimate D2E/DX2                !
 ! D19   D(6,5,16,12)           64.3045         estimate D2E/DX2                !
 ! D20   D(6,5,16,17)         -177.2411         estimate D2E/DX2                !
 ! D21   D(6,5,16,18)          -61.9892         estimate D2E/DX2                !
 ! D22   D(7,5,16,12)          -56.0285         estimate D2E/DX2                !
 ! D23   D(7,5,16,17)           62.426          estimate D2E/DX2                !
 ! D24   D(7,5,16,18)          177.6779         estimate D2E/DX2                !
 ! D25   D(19,5,16,12)        -174.5711         estimate D2E/DX2                !
 ! D26   D(19,5,16,17)         -56.1167         estimate D2E/DX2                !
 ! D27   D(19,5,16,18)          59.1353         estimate D2E/DX2                !
 ! D28   D(6,5,19,20)           60.3118         estimate D2E/DX2                !
 ! D29   D(6,5,19,21)          178.838          estimate D2E/DX2                !
 ! D30   D(6,5,19,22)          -58.4737         estimate D2E/DX2                !
 ! D31   D(7,5,19,20)          177.7279         estimate D2E/DX2                !
 ! D32   D(7,5,19,21)          -63.7459         estimate D2E/DX2                !
 ! D33   D(7,5,19,22)           58.9424         estimate D2E/DX2                !
 ! D34   D(16,5,19,20)         -60.5132         estimate D2E/DX2                !
 ! D35   D(16,5,19,21)          58.013          estimate D2E/DX2                !
 ! D36   D(16,5,19,22)        -179.2987         estimate D2E/DX2                !
 ! D37   D(1,8,10,11)           50.2827         estimate D2E/DX2                !
 ! D38   D(9,8,10,11)          -70.0109         estimate D2E/DX2                !
 ! D39   D(12,8,10,11)         171.8313         estimate D2E/DX2                !
 ! D40   D(1,8,12,13)           63.3725         estimate D2E/DX2                !
 ! D41   D(1,8,12,14)         -175.8374         estimate D2E/DX2                !
 ! D42   D(1,8,12,16)          -56.2606         estimate D2E/DX2                !
 ! D43   D(9,8,12,13)         -178.2364         estimate D2E/DX2                !
 ! D44   D(9,8,12,14)          -57.4463         estimate D2E/DX2                !
 ! D45   D(9,8,12,16)           62.1305         estimate D2E/DX2                !
 ! D46   D(10,8,12,13)         -58.4508         estimate D2E/DX2                !
 ! D47   D(10,8,12,14)          62.3393         estimate D2E/DX2                !
 ! D48   D(10,8,12,16)        -178.084          estimate D2E/DX2                !
 ! D49   D(8,12,14,15)         -51.5937         estimate D2E/DX2                !
 ! D50   D(13,12,14,15)         67.439          estimate D2E/DX2                !
 ! D51   D(16,12,14,15)       -170.846          estimate D2E/DX2                !
 ! D52   D(8,12,16,5)           53.4965         estimate D2E/DX2                !
 ! D53   D(8,12,16,17)         -66.0288         estimate D2E/DX2                !
 ! D54   D(8,12,16,18)         174.0185         estimate D2E/DX2                !
 ! D55   D(13,12,16,5)         -64.5916         estimate D2E/DX2                !
 ! D56   D(13,12,16,17)        175.883          estimate D2E/DX2                !
 ! D57   D(13,12,16,18)         55.9304         estimate D2E/DX2                !
 ! D58   D(14,12,16,5)         173.4366         estimate D2E/DX2                !
 ! D59   D(14,12,16,17)         53.9113         estimate D2E/DX2                !
 ! D60   D(14,12,16,18)        -66.0413         estimate D2E/DX2                !
 ! D61   D(5,16,18,24)         109.6229         estimate D2E/DX2                !
 ! D62   D(12,16,18,24)        -12.0697         estimate D2E/DX2                !
 ! D63   D(17,16,18,24)       -132.8954         estimate D2E/DX2                !
 ! D64   D(16,18,24,25)         53.9597         estimate D2E/DX2                !
 ! D65   D(16,18,24,28)        -66.6268         estimate D2E/DX2                !
 ! D66   D(16,18,24,29)        175.0105         estimate D2E/DX2                !
 ! D67   D(5,19,22,23)         -51.4097         estimate D2E/DX2                !
 ! D68   D(20,19,22,23)       -171.1411         estimate D2E/DX2                !
 ! D69   D(21,19,22,23)         69.4316         estimate D2E/DX2                !
 ! D70   D(18,24,28,26)        177.1664         estimate D2E/DX2                !
 ! D71   D(25,24,28,26)         55.7964         estimate D2E/DX2                !
 ! D72   D(29,24,28,26)        -65.4882         estimate D2E/DX2                !
 ! D73   D(18,24,29,30)         58.7643         estimate D2E/DX2                !
 ! D74   D(18,24,29,31)        -64.4314         estimate D2E/DX2                !
 ! D75   D(18,24,29,33)        177.5955         estimate D2E/DX2                !
 ! D76   D(25,24,29,30)        179.9325         estimate D2E/DX2                !
 ! D77   D(25,24,29,31)         56.7367         estimate D2E/DX2                !
 ! D78   D(25,24,29,33)        -61.2364         estimate D2E/DX2                !
 ! D79   D(28,24,29,30)        -59.449          estimate D2E/DX2                !
 ! D80   D(28,24,29,31)        177.3552         estimate D2E/DX2                !
 ! D81   D(28,24,29,33)         59.3821         estimate D2E/DX2                !
 ! D82   D(27,26,28,24)        -56.2024         estimate D2E/DX2                !
 ! D83   D(37,26,28,24)         63.5188         estimate D2E/DX2                !
 ! D84   D(41,26,28,24)       -174.0347         estimate D2E/DX2                !
 ! D85   D(27,26,37,33)         63.3597         estimate D2E/DX2                !
 ! D86   D(27,26,37,38)       -178.5903         estimate D2E/DX2                !
 ! D87   D(27,26,37,39)        -57.9037         estimate D2E/DX2                !
 ! D88   D(28,26,37,33)        -56.312          estimate D2E/DX2                !
 ! D89   D(28,26,37,38)         61.7379         estimate D2E/DX2                !
 ! D90   D(28,26,37,39)       -177.5755         estimate D2E/DX2                !
 ! D91   D(41,26,37,33)       -174.5327         estimate D2E/DX2                !
 ! D92   D(41,26,37,38)        -56.4827         estimate D2E/DX2                !
 ! D93   D(41,26,37,39)         64.2039         estimate D2E/DX2                !
 ! D94   D(27,26,41,42)         56.3956         estimate D2E/DX2                !
 ! D95   D(27,26,41,43)        174.8974         estimate D2E/DX2                !
 ! D96   D(27,26,41,44)        -62.3291         estimate D2E/DX2                !
 ! D97   D(28,26,41,42)        174.3498         estimate D2E/DX2                !
 ! D98   D(28,26,41,43)        -67.1484         estimate D2E/DX2                !
 ! D99   D(28,26,41,44)         55.6251         estimate D2E/DX2                !
 ! D100  D(37,26,41,42)        -65.8592         estimate D2E/DX2                !
 ! D101  D(37,26,41,43)         52.6426         estimate D2E/DX2                !
 ! D102  D(37,26,41,44)        175.4161         estimate D2E/DX2                !
 ! D103  D(24,29,31,32)         56.9396         estimate D2E/DX2                !
 ! D104  D(30,29,31,32)        -64.2695         estimate D2E/DX2                !
 ! D105  D(33,29,31,32)        175.665          estimate D2E/DX2                !
 ! D106  D(24,29,33,34)         63.7719         estimate D2E/DX2                !
 ! D107  D(24,29,33,35)       -174.5175         estimate D2E/DX2                !
 ! D108  D(24,29,33,37)        -54.8318         estimate D2E/DX2                !
 ! D109  D(30,29,33,34)       -178.4524         estimate D2E/DX2                !
 ! D110  D(30,29,33,35)        -56.7417         estimate D2E/DX2                !
 ! D111  D(30,29,33,37)         62.944          estimate D2E/DX2                !
 ! D112  D(31,29,33,34)        -57.2339         estimate D2E/DX2                !
 ! D113  D(31,29,33,35)         64.4768         estimate D2E/DX2                !
 ! D114  D(31,29,33,37)       -175.8375         estimate D2E/DX2                !
 ! D115  D(29,33,35,36)        -54.9732         estimate D2E/DX2                !
 ! D116  D(34,33,35,36)         65.5833         estimate D2E/DX2                !
 ! D117  D(37,33,35,36)       -176.6305         estimate D2E/DX2                !
 ! D118  D(29,33,37,26)         53.8028         estimate D2E/DX2                !
 ! D119  D(29,33,37,38)        -64.6075         estimate D2E/DX2                !
 ! D120  D(29,33,37,39)        173.3175         estimate D2E/DX2                !
 ! D121  D(34,33,37,26)        -64.716          estimate D2E/DX2                !
 ! D122  D(34,33,37,38)        176.8737         estimate D2E/DX2                !
 ! D123  D(34,33,37,39)         54.7988         estimate D2E/DX2                !
 ! D124  D(35,33,37,26)        176.2932         estimate D2E/DX2                !
 ! D125  D(35,33,37,38)         57.883          estimate D2E/DX2                !
 ! D126  D(35,33,37,39)        -64.192          estimate D2E/DX2                !
 ! D127  D(26,37,39,40)        170.1762         estimate D2E/DX2                !
 ! D128  D(33,37,39,40)         49.7973         estimate D2E/DX2                !
 ! D129  D(38,37,39,40)        -70.5835         estimate D2E/DX2                !
 ! D130  D(26,41,44,45)        -60.144          estimate D2E/DX2                !
 ! D131  D(42,41,44,45)       -179.6982         estimate D2E/DX2                !
 ! D132  D(43,41,44,45)         61.1612         estimate D2E/DX2                !
 --------------------------------------------------------------------------------
 Trust Radius=3.00D-01 FncErr=1.00D-07 GrdErr=1.00D-06 EigMax=2.50D+02 EigMin=1.00D-04
 Number of steps in this run=    270 maximum allowed number of steps=    270.
 GradGradGradGradGradGradGradGradGradGradGradGradGradGradGradGradGradGrad

 Leave Link  103 at Thu Mar 16 18:55:26 2023, MaxMem=   262144000 cpu:               0.1 elap:               0.0
 (Enter /dragofs/sw/campus/0.2/software/gaussian/16.gaussian/gaussian/g16_legacy/l202.exe)
                          Input orientation:                          
 ---------------------------------------------------------------------
 Center     Atomic      Atomic             Coordinates (Angstroms)
 Number     Number       Type             X           Y           Z
 ---------------------------------------------------------------------
      1          6           0        3.462290   -0.690890   -0.216280
      2          1           0        2.966907   -1.364134   -0.928296
      3          8           0        4.810501   -1.029683   -0.228778
      4          1           0        5.281313   -0.337706    0.249675
      5          6           0        1.960176    1.073769   -0.683513
      6          1           0        1.421309    0.434318   -1.397482
      7          8           0        3.321835    0.653926   -0.604545
      8          6           0        2.866784   -0.856124    1.173717
      9          1           0        3.418602   -0.190565    1.856463
     10          8           0        2.928464   -2.194035    1.609098
     11          1           0        3.831262   -2.503462    1.481718
     12          6           0        1.398497   -0.462463    1.192917
     13          1           0        0.856530   -1.152749    0.534025
     14          8           0        0.899018   -0.534799    2.512989
     15          1           0        1.131619   -1.408774    2.846691
     16          6           0        1.267904    0.968143    0.682879
     17          1           0        1.756027    1.634484    1.401838
     18          8           0       -0.061318    1.459293    0.508033
     19          6           0        2.003263    2.489697   -1.223834
     20          1           0        0.987518    2.861208   -1.348495
     21          1           0        2.525310    3.124588   -0.493554
     22          8           0        2.632737    2.523086   -2.481350
     23          1           0        3.471869    2.063246   -2.377899
     24          6           0       -1.123404    0.566902    0.557249
     25          1           0       -1.098833   -0.017693    1.486639
     26          6           0       -2.070153   -1.297641   -0.534562
     27          1           0       -2.022570   -1.854087    0.413141
     28          8           0       -1.042969   -0.308171   -0.554923
     29          6           0       -2.407015    1.374227    0.467076
     30          1           0       -2.387058    1.941055   -0.473245
     31          8           0       -2.574963    2.223650    1.579592
     32          1           0       -1.799473    2.791166    1.628725
     33          6           0       -3.579057    0.411051    0.459078
     34          1           0       -3.592261   -0.122715    1.421054
     35          8           0       -4.808043    1.074550    0.252239
     36          1           0       -4.879585    1.758360    0.925960
     37          6           0       -3.425497   -0.611355   -0.653193
     38          1           0       -3.469384   -0.080045   -1.615478
     39          8           0       -4.426563   -1.598734   -0.574845
     40          1           0       -5.266425   -1.134377   -0.494225
     41          6           0       -1.775884   -2.242304   -1.682877
     42          1           0       -2.475905   -3.076150   -1.650940
     43          1           0       -1.914376   -1.704166   -2.629816
     44          8           0       -0.470471   -2.767510   -1.575836
     45          1           0        0.124354   -2.012467   -1.601811
 ---------------------------------------------------------------------
                    Distance matrix (angstroms):
                    1          2          3          4          5
     1  C    0.000000
     2  H    1.098011   0.000000
     3  O    1.390183   2.000005   0.000000
     4  H    1.910680   2.792426   0.964061   0.000000
     5  C    2.364038   2.648924   3.571505   3.727339   0.000000
     6  H    2.612840   2.417320   3.872440   4.267174   1.099558
     7  O    1.406772   2.074453   2.278567   2.356391   1.427102
     8  C    1.521191   2.164846   2.403154   2.636771   2.827672
     9  H    2.132721   3.055516   2.643810   2.464368   3.190145
    10  O    2.424133   2.669940   2.876729   3.290879   4.107577
    11  H    2.510927   2.802382   2.461042   2.882894   4.581023
    12  C    2.509434   2.787914   3.739616   3.997691   2.489273
    13  H    2.750683   2.576190   4.028759   4.508199   2.767276
    14  O    3.747484   4.099561   4.802280   4.936187   3.732449
    15  H    3.915249   4.197714   4.810030   5.011151   4.394527
    16  C    2.894168   3.304847   4.168024   4.242683   1.535391
    17  H    3.307114   3.985908   4.368811   4.200554   2.169047
    18  O    4.190910   4.382343   5.520191   5.642664   2.377993
    19  C    3.641436   3.983462   4.610505   4.572860   1.516132
    20  H    4.474797   4.684876   5.568483   5.587833   2.140842
    21  H    3.938615   4.531295   4.748702   4.487251   2.135725
    22  O    4.018500   4.199301   4.736972   4.759998   2.405218
    23  H    3.501136   3.755432   3.997107   3.992844   2.476939
    24  C    4.817570   4.760923   6.195010   6.475594   3.362272
    25  H    4.914974   4.916814   6.235945   6.506823   3.906198
    26  C    5.574709   5.052863   6.892656   7.455237   4.678603
    27  H    5.642064   5.189835   6.912493   7.461423   5.063325
    28  O    4.534149   4.163361   5.906781   6.375327   3.308349
    29  C    6.259427   6.190696   7.639079   7.879617   4.526200
    30  H    6.419349   6.308430   7.790373   8.032389   4.437887
    31  O    6.940326   7.062154   8.270396   8.369606   5.197245
    32  H    6.573805   6.820796   7.857542   7.863151   4.736123
    33  C    7.158977   6.922841   8.540114   8.894416   5.694542
    34  H    7.264322   7.076952   8.611094   8.953137   6.057255
    35  O    8.469634   8.233510   9.857767  10.187717   6.832600
    36  H    8.768718   8.646136  10.149107  10.396860   7.059844
    37  C    6.902089   6.442452   8.257529   8.757773   5.643229
    38  H    7.097816   6.599011   8.448742   8.950971   5.628496
    39  O    7.949009   7.405631   9.261044   9.824097   6.924198
    40  H    8.744392   8.247967  10.080965  10.603907   7.558803
    41  C    5.656524   4.882073   6.853125   7.560839   5.094430
    42  H    6.558191   5.751297   7.700798   8.443094   6.151143
    43  H    5.980002   5.180513   7.172439   7.869982   5.149483
    44  O    4.650522   3.768865   5.720426   6.505341   4.632463
    45  H    3.848127   2.992334   4.981070   5.729490   3.706530
                    6          7          8          9         10
     6  H    0.000000
     7  O    2.070984   0.000000
     8  C    3.219581   2.376876   0.000000
     9  H    3.868826   2.603668   1.101641   0.000000
    10  O    4.268405   3.628476   1.408321   2.077334   0.000000
    11  H    4.767412   3.818522   1.933599   2.379121   0.962816
    12  C    2.741332   2.859445   1.520265   2.143606   2.347839
    13  H    2.562904   3.261617   2.130332   3.039548   2.555967
    14  O    4.062482   4.123364   2.401875   2.626371   2.772857
    15  H    4.636153   4.578516   2.472865   2.773964   2.318819
    16  C    2.153231   2.444346   2.474932   2.710241   3.689812
    17  H    3.064087   2.727420   2.736594   2.510307   4.009379
    18  O    2.622927   3.651324   3.791843   4.080458   4.847468
    19  C    2.143223   2.343546   4.205762   4.321483   5.551472
    20  H    2.465841   3.297665   4.869471   5.049281   6.170098
    21  H    3.045235   2.598257   4.329257   4.160624   5.733361
    22  O    2.646749   2.736971   4.983307   5.176689   6.250636
    23  H    2.796323   2.270127   4.637114   4.797116   5.857975
    24  C    3.211560   4.595377   4.280962   4.784510   5.014658
    25  H    3.856629   4.936236   4.065342   4.535843   4.579365
    26  C    3.991819   5.734723   5.242757   6.088436   5.512257
    27  H    4.513918   5.990699   5.047790   5.869995   5.104764
    28  O    2.708110   4.469855   4.309828   5.072892   4.900179
    29  C    4.360742   5.872557   5.769468   6.190055   6.519513
    30  H    4.198587   5.853666   6.175723   6.608860   7.049106
    31  O    5.294796   6.481259   6.265968   6.467450   7.057232
    32  H    5.008602   5.981896   5.940009   6.014224   6.870662
    33  C    5.333949   6.986601   6.607973   7.161135   7.103298
    34  H    5.778435   7.246444   6.505254   7.024698   6.844383
    35  O    6.475824   8.185714   7.967408   8.476540   8.507541
    36  H    6.844906   8.415789   8.179434   8.574617   8.778026
    37  C    5.013873   6.865114   6.556700   7.301858   6.927890
    38  H    4.922496   6.905169   6.966271   7.714333   7.469893
    39  O    6.245610   8.069265   7.536700   8.333115   7.695480
    40  H    6.928381   8.773164   8.307138   9.046889   8.526608
    41  C    4.179450   5.961349   5.624588   6.612053   5.741979
    42  H    5.251276   6.972962   6.438286   7.441350   6.372847
    43  H    4.149525   6.089354   6.168106   7.131503   6.454569
    44  O    3.723217   5.199155   4.727654   5.791909   4.693127
    45  H    2.776797   4.281130   4.069595   5.111854   4.266842
                   11         12         13         14         15
    11  H    0.000000
    12  C    3.188641   0.000000
    13  H    3.401702   1.097434   0.000000
    14  O    3.679295   1.413259   2.073636   0.000000
    15  H    3.217074   1.923979   2.343000   0.963998   0.000000
    16  C    4.388734   1.524410   2.165541   2.396709   3.217202
    17  H    4.629857   2.137443   3.054646   2.583585   3.426209
    18  O    5.639474   2.508639   2.768733   2.986385   3.888217
    19  C    5.966006   3.862859   4.203865   4.932624   5.703246
    20  H    6.699005   4.204101   4.435413   5.143127   5.987746
    21  H    6.105912   4.120780   4.704929   5.007518   5.800947
    22  O    6.512185   4.892554   5.075348   6.107361   6.789764
    23  H    5.990044   4.840331   5.065760   6.106569   6.695374
    24  C    5.901736   2.797079   2.622571   3.021399   3.772263
    25  H    5.521314   2.553576   2.453420   2.304821   2.959690
    26  C    6.351857   3.963993   3.119030   4.322669   4.657957
    27  H    5.985891   3.774701   2.965755   3.832174   4.008663
    28  O    5.720606   3.006577   2.346746   3.637961   4.184631
    29  C    7.414990   4.287446   4.128052   4.331281   5.092111
    30  H    7.889431   4.783662   4.594244   5.083871   5.884252
    31  O    7.962091   4.811767   4.926299   4.533080   5.342171
    32  H    7.730451   4.582908   4.879261   4.373308   5.264431
    33  C    8.028263   5.106622   4.703777   5.016606   5.585958
    34  H    7.796174   5.007508   4.651831   4.640444   5.099160
    35  O    9.431404   6.462849   6.093246   6.345986   6.941013
    36  H    9.713437   6.664656   6.444469   6.416346   7.060773
    37  C    7.797337   5.167321   4.476421   5.360224   5.801066
    38  H    8.292467   5.632903   4.948190   6.027767   6.545663
    39  O    8.558017   6.192529   5.416601   6.247279   6.529654
    40  H    9.409923   6.907901   6.208721   6.885893   7.223017
    41  C    6.443830   4.638396   3.609901   5.260795   5.446589
    42  H    7.065541   5.470820   4.424779   5.931853   6.001921
    43  H    7.110270   5.208670   4.241683   5.977545   6.273553
    44  O    5.284247   4.058605   2.969831   4.855820   4.896080
    45  H    4.846689   3.440415   2.415987   4.440179   4.600891
                   16         17         18         19         20
    16  C    0.000000
    17  H    1.095069   0.000000
    18  O    1.427806   2.032811   0.000000
    19  C    2.547829   2.772484   2.885063   0.000000
    20  H    2.790841   3.108020   2.551885   1.088714   0.000000
    21  H    2.759587   2.530754   3.235279   1.099513   1.779072
    22  O    3.780603   4.078895   4.162451   1.406662   2.025940
    23  H    3.927477   4.173052   4.601823   1.915863   2.805070
    24  C    2.427989   3.184994   1.388096   4.079883   3.653997
    25  H    2.686884   3.299561   2.053191   4.822517   4.547408
    26  C    4.214091   5.194868   3.566947   5.604618   5.225693
    27  H    4.343381   5.236931   3.851493   6.144549   5.864981
    28  O    2.915693   3.929020   2.284172   4.189873   3.846765
    29  C    3.703580   4.274627   2.347596   4.853247   4.126774
    30  H    3.954988   4.557968   2.569838   4.487684   3.605622
    31  O    4.141017   4.374493   2.837409   5.374954   4.655260
    32  H    3.691455   3.745794   2.459882   4.763274   4.078733
    33  C    4.884001   5.554161   3.670926   6.189932   5.488551
    34  H    5.035482   5.629592   3.975414   6.717888   6.127689
    35  O    6.092118   6.687460   4.769157   7.111633   6.272402
    36  H    6.202834   6.653807   4.845596   7.247763   6.388452
    37  C    5.129124   6.009587   4.117491   6.278024   5.658343
    38  H    5.368709   6.272856   4.300439   6.058616   5.346609
    39  O    6.371631   7.251579   5.438706   7.647164   7.057045
    40  H    6.964454   7.783089   5.901253   8.155649   7.470360
    41  C    5.016813   6.084353   4.630512   6.073262   5.813264
    42  H    5.984908   7.029849   5.573297   7.157096   6.880334
    43  H    5.314329   6.393174   4.825701   5.908737   5.559264
    44  O    4.698813   5.762064   4.730304   5.820781   5.818924
    45  H    3.925755   4.998451   4.066821   4.893122   4.955999
                   21         22         23         24         25
    21  H    0.000000
    22  O    2.079586   0.000000
    23  H    2.360758   0.962443   0.000000
    24  C    4.578106   5.212325   5.654261   0.000000
    25  H    5.189365   6.010417   6.336898   1.098235   0.000000
    26  C    6.377779   6.364363   6.738506   2.359005   2.582050
    27  H    6.803860   7.014956   7.302346   2.586591   2.319058
    28  O    4.951789   5.023739   5.415775   1.417445   2.062880
    29  C    5.321128   5.950814   6.567336   1.519066   2.165246
    30  H    5.052972   5.437793   6.161953   2.132378   3.055710
    31  O    5.578746   6.610677   7.228530   2.428379   2.685371
    32  H    4.828974   6.050543   6.661077   2.559781   2.898409
    33  C    6.747895   7.189798   7.777772   2.462551   2.718679
    34  H    7.185776   7.808945   8.313387   2.704993   2.496500
    35  O    7.650943   8.058286   8.743688   3.731930   4.058938
    36  H    7.662511   8.284295   8.986391   3.957830   4.214595
    37  C    7.028148   7.061804   7.596167   2.855362   3.216315
    38  H    6.889466   6.690434   7.304517   3.262347   3.904680
    39  O    8.405053   8.393919   8.890800   4.108829   4.221752
    40  H    8.879748   8.928744   9.493724   4.600497   4.747592
    41  C    6.979849   6.540829   6.823469   3.651785   3.931046
    42  H    8.049897   7.624910   7.894167   4.469584   4.592917
    43  H    6.898644   6.210309   6.577879   3.992589   4.522666
    44  O    6.697974   6.200021   6.286617   4.011817   4.163542
    45  H    5.777729   5.257073   5.331004   3.587699   3.874769
                   26         27         28         29         30
    26  C    0.000000
    27  H    1.100017   0.000000
    28  O    1.426384   2.070416   0.000000
    29  C    2.873262   3.251572   2.394904   0.000000
    30  H    3.254741   3.914286   2.621500   1.098133   0.000000
    31  O    4.138112   4.277112   3.648736   1.409758   2.080699
    32  H    4.633726   4.806848   3.866071   1.930350   2.342269
    33  C    2.486713   2.748747   2.824397   1.517055   2.151976
    34  H    2.742571   2.545087   3.230754   2.134413   3.049595
    35  O    3.707073   4.044955   4.091358   2.429176   2.671765
    36  H    4.400588   4.634144   4.602520   2.543961   2.864235
    37  C    1.523817   2.156306   2.403751   2.496967   2.761437
    38  H    2.146804   3.058724   2.657877   2.753283   2.561439
    39  O    2.375910   2.611609   3.621417   3.742014   4.086564
    40  H    3.200693   3.444400   4.303938   3.923445   4.213013
    41  C    1.515787   2.145893   2.355911   4.254400   4.397412
    42  H    2.138698   2.441184   3.303977   4.929157   5.154338
    43  H    2.140004   3.048568   2.648270   4.394307   4.261674
    44  O    2.409097   2.683166   2.723668   5.007762   5.201884
    45  H    2.542805   2.948627   2.315868   4.707209   4.817799
                   31         32         33         34         35
    31  O    0.000000
    32  H    0.962223   0.000000
    33  C    2.355689   3.193735   0.000000
    34  H    2.562315   3.427524   1.100217   0.000000
    35  O    2.840589   3.727328   1.411885   2.068260   0.000000
    36  H    2.440289   3.323802   1.929921   2.332545   0.962608
    37  C    3.707559   4.407749   1.518566   2.137541   2.360830
    38  H    4.039241   4.642985   2.134710   3.039317   2.571666
    39  O    4.762420   5.570327   2.413814   2.618837   2.824189
    40  H    4.777136   5.651244   2.478779   2.737623   2.376275
    41  C    5.588110   6.025204   3.857421   4.174478   4.892871
    42  H    6.207578   6.755676   4.222522   4.405244   5.127306
    43  H    5.795104   6.193253   4.097142   4.661098   4.939718
    44  O    6.268755   6.552430   4.889523   5.071673   6.076003
    45  H    5.945782   6.100194   4.882208   5.149961   6.107022
                   36         37         38         39         40
    36  H    0.000000
    37  C    3.197444   0.000000
    38  H    3.439085   1.100095   0.000000
    39  O    3.705094   1.408257   2.074976   0.000000
    40  H    3.245689   1.920375   2.366047   0.963066   0.000000
    41  C    5.695990   2.538004   2.747335   2.944150   3.850230
    42  H    5.982523   2.823551   3.156723   2.673164   3.591027
    43  H    5.781444   2.717492   2.466719   3.247323   4.015176
    44  O    6.795791   3.772592   4.027098   4.244842   5.180558
    45  H    6.756343   3.932484   4.080367   4.683661   5.572996
                   41         42         43         44         45
    41  C    0.000000
    42  H    1.089196   0.000000
    43  H    1.097937   1.776472   0.000000
    44  O    1.411171   2.030435   2.080009   0.000000
    45  H    1.915803   2.809837   2.303967   0.961552   0.000000
 Stoichiometry    C12H22O11
 Framework group  C1[X(C12H22O11)]
 Deg. of freedom   129
 Full point group                 C1      NOp   1
 Largest Abelian subgroup         C1      NOp   1
 Largest concise Abelian subgroup C1      NOp   1
                         Standard orientation:                         
 ---------------------------------------------------------------------
 Center     Atomic      Atomic             Coordinates (Angstroms)
 Number     Number       Type             X           Y           Z
 ---------------------------------------------------------------------
      1          6           0        3.462290   -0.690890   -0.216280
      2          1           0        2.966907   -1.364134   -0.928296
      3          8           0        4.810501   -1.029683   -0.228778
      4          1           0        5.281313   -0.337706    0.249675
      5          6           0        1.960176    1.073769   -0.683513
      6          1           0        1.421309    0.434318   -1.397482
      7          8           0        3.321835    0.653926   -0.604545
      8          6           0        2.866784   -0.856124    1.173717
      9          1           0        3.418602   -0.190565    1.856463
     10          8           0        2.928464   -2.194035    1.609098
     11          1           0        3.831262   -2.503462    1.481718
     12          6           0        1.398497   -0.462463    1.192917
     13          1           0        0.856530   -1.152749    0.534025
     14          8           0        0.899018   -0.534799    2.512989
     15          1           0        1.131619   -1.408774    2.846691
     16          6           0        1.267904    0.968143    0.682879
     17          1           0        1.756027    1.634484    1.401838
     18          8           0       -0.061318    1.459293    0.508033
     19          6           0        2.003263    2.489697   -1.223834
     20          1           0        0.987518    2.861208   -1.348495
     21          1           0        2.525310    3.124588   -0.493554
     22          8           0        2.632737    2.523086   -2.481350
     23          1           0        3.471869    2.063246   -2.377899
     24          6           0       -1.123404    0.566902    0.557249
     25          1           0       -1.098833   -0.017693    1.486639
     26          6           0       -2.070153   -1.297641   -0.534562
     27          1           0       -2.022570   -1.854087    0.413141
     28          8           0       -1.042969   -0.308171   -0.554923
     29          6           0       -2.407015    1.374227    0.467076
     30          1           0       -2.387058    1.941055   -0.473245
     31          8           0       -2.574963    2.223650    1.579592
     32          1           0       -1.799473    2.791166    1.628725
     33          6           0       -3.579057    0.411051    0.459078
     34          1           0       -3.592261   -0.122715    1.421054
     35          8           0       -4.808043    1.074550    0.252239
     36          1           0       -4.879585    1.758360    0.925960
     37          6           0       -3.425497   -0.611355   -0.653193
     38          1           0       -3.469384   -0.080045   -1.615478
     39          8           0       -4.426563   -1.598734   -0.574845
     40          1           0       -5.266425   -1.134377   -0.494225
     41          6           0       -1.775884   -2.242304   -1.682877
     42          1           0       -2.475905   -3.076150   -1.650940
     43          1           0       -1.914376   -1.704166   -2.629816
     44          8           0       -0.470471   -2.767510   -1.575836
     45          1           0        0.124354   -2.012467   -1.601811
 ---------------------------------------------------------------------
 Rotational constants (GHZ):           0.3845097           0.1596830           0.1458820
 Leave Link  202 at Thu Mar 16 18:55:26 2023, MaxMem=   262144000 cpu:               0.0 elap:               0.0
 (Enter /dragofs/sw/campus/0.2/software/gaussian/16.gaussian/gaussian/g16_legacy/l301.exe)
 Standard basis: 6-311G(d,p) (5D, 7F)
 Ernie: Thresh=  0.10000D-02 Tol=  0.10000D-05 Strict=F.
 There are   569 symmetry adapted cartesian basis functions of A   symmetry.
 There are   546 symmetry adapted basis functions of A   symmetry.
   546 basis functions,   912 primitive gaussians,   569 cartesian basis functions
    91 alpha electrons       91 beta electrons
       nuclear repulsion energy      2351.6093617488 Hartrees.
 IExCor= 4336 DFT=T Ex+Corr=M062X ExCW=0 ScaHFX=  0.540000
 ScaDFX=  1.000000  1.000000  1.000000  1.000000 ScalE2=  1.000000  1.000000
 IRadAn=      5 IRanWt=     -1 IRanGd=            0 ICorTp=0 IEmpDi=  4
 NAtoms=   45 NActive=   45 NUniq=   45 SFac= 1.00D+00 NAtFMM=   60 NAOKFM=F Big=F
 Integral buffers will be    131072 words long.
 Raffenetti 2 integral format.
 Two-electron integral symmetry is turned on.
 Leave Link  301 at Thu Mar 16 18:55:26 2023, MaxMem=   262144000 cpu:               0.4 elap:               0.1
 (Enter /dragofs/sw/campus/0.2/software/gaussian/16.gaussian/gaussian/g16_legacy/l302.exe)
 NPDir=0 NMtPBC=     1 NCelOv=     1 NCel=       1 NClECP=     1 NCelD=      1
         NCelK=      1 NCelE2=     1 NClLst=     1 CellRange=     0.0.
 One-electron integrals computed using PRISM.
 One-electron integral symmetry used in STVInt
 NBasis=   546 RedAO= T EigKep=  6.58D-04  NBF=   546
 NBsUse=   546 1.00D-06 EigRej= -1.00D+00 NBFU=   546
 Precomputing XC quadrature grid using
 IXCGrd= 4 IRadAn=           5 IRanWt=          -1 IRanGd=           0 AccXCQ= 0.00D+00.
 Generated NRdTot=       0 NPtTot=           0 NUsed=           0 NTot=          32
 NSgBfM=   557   557   557   557   557 MxSgAt=    45 MxSgA2=    45.
 Leave Link  302 at Thu Mar 16 18:55:27 2023, MaxMem=   262144000 cpu:               5.9 elap:               0.8
 (Enter /dragofs/sw/campus/0.2/software/gaussian/16.gaussian/gaussian/g16_legacy/l303.exe)
 DipDrv:  MaxL=1.
 Leave Link  303 at Thu Mar 16 18:55:27 2023, MaxMem=   262144000 cpu:               0.4 elap:               0.1
 (Enter /dragofs/sw/campus/0.2/software/gaussian/16.gaussian/gaussian/g16_legacy/l401.exe)
 ExpMin= 1.03D-01 ExpMax= 8.59D+03 ExpMxC= 1.30D+03 IAcc=3 IRadAn=         5 AccDes= 0.00D+00
 Harris functional with IExCor= 1009 and IRadAn=       5 diagonalized for initial guess.
 HarFok:  IExCor= 1009 AccDes= 0.00D+00 IRadAn=         5 IDoV= 1 UseB2=F ITyADJ=14
 ICtDFT=  3500011 ScaDFX=  1.000000  1.000000  1.000000  1.000000
 FoFCou: FMM=F IPFlag=           0 FMFlag=      100000 FMFlg1=           0
         NFxFlg=           0 DoJE=T BraDBF=F KetDBF=T FulRan=T
         wScrn=  0.000000 ICntrl=       500 IOpCl=  0 I1Cent=   200000004 NGrid=           0
         NMat0=    1 NMatS0=      1 NMatT0=    0 NMatD0=    1 NMtDS0=    0 NMtDT0=    0
 Petite list used in FoFCou.
 Harris En= -1297.11762825798    
 JPrj=0 DoOrth=F DoCkMO=F.
 Leave Link  401 at Thu Mar 16 18:55:31 2023, MaxMem=   262144000 cpu:              36.7 elap:               4.6
 (Enter /dragofs/sw/campus/0.2/software/gaussian/16.gaussian/gaussian/g16_legacy/l502.exe)
 Integral symmetry usage will be decided dynamically.
 Closed shell SCF:
 Using DIIS extrapolation, IDIIS=  1040.
 NGot=   262144000 LenX=   261486196 LenY=   261161866
 Requested convergence on RMS density matrix=1.00D-08 within 128 cycles.
 Requested convergence on MAX density matrix=1.00D-06.
 Requested convergence on             energy=1.00D-06.
 No special actions if energy rises.
 Fock matrices will be formed incrementally for  20 cycles.
 Integral accuracy reduced to 1.0D-05 until final iterations.

 Cycle   1  Pass 0  IDiag  1:
 FoFJK:  IHMeth= 1 ICntrl=       0 DoSepK=F KAlg= 0 I1Cent=           0 FoldK=F
 IRaf= 760000000 NMat=       1 IRICut=       1 DoRegI=T DoRafI=F ISym2E= 0 IDoP0=0 IntGTp=1.
 FoFCou: FMM=F IPFlag=           0 FMFlag=      100000 FMFlg1=           0
         NFxFlg=           0 DoJE=F BraDBF=F KetDBF=F FulRan=T
         wScrn=  0.000000 ICntrl=         0 IOpCl=  0 I1Cent=           0 NGrid=           0
         NMat0=    1 NMatS0=      1 NMatT0=    0 NMatD0=    1 NMtDS0=    0 NMtDT0=    0
 Symmetry not used in FoFCou.
 E= -1297.33965761291    
 DIIS: error= 1.64D-02 at cycle   1 NSaved=   1.
 NSaved= 1 IEnMin= 1 EnMin= -1297.33965761291     IErMin= 1 ErrMin= 1.64D-02
 ErrMax= 1.64D-02  0.00D+00 EMaxC= 1.00D-01 BMatC= 8.47D-01 BMatP= 8.47D-01
 IDIUse=3 WtCom= 8.36D-01 WtEn= 1.64D-01
 Coeff-Com:  0.100D+01
 Coeff-En:   0.100D+01
 Coeff:      0.100D+01
 Gap=     0.410 Goal=   None    Shift=    0.000
 GapD=    0.410 DampG=2.000 DampE=0.500 DampFc=1.0000 IDamp=-1.
 RMSDP=2.54D-03 MaxDP=1.79D-01              OVMax= 1.08D-01

 Cycle   2  Pass 0  IDiag  1:
 RMSU=  2.53D-03    CP:  1.03D+00
 E= -1297.43048349257     Delta-E=       -0.090825879659 Rises=F Damp=F
 DIIS: error= 1.58D-02 at cycle   2 NSaved=   2.
 NSaved= 2 IEnMin= 2 EnMin= -1297.43048349257     IErMin= 2 ErrMin= 1.58D-02
 ErrMax= 1.58D-02  0.00D+00 EMaxC= 1.00D-01 BMatC= 5.95D-01 BMatP= 8.47D-01
 IDIUse=3 WtCom= 8.42D-01 WtEn= 1.58D-01
 Coeff-Com:  0.452D+00 0.548D+00
 Coeff-En:   0.442D+00 0.558D+00
 Coeff:      0.450D+00 0.550D+00
 Gap=     0.402 Goal=   None    Shift=    0.000
 RMSDP=1.43D-03 MaxDP=9.23D-02 DE=-9.08D-02 OVMax= 5.70D-02

 Cycle   3  Pass 0  IDiag  1:
 RMSU=  4.57D-04    CP:  1.01D+00  4.69D-01
 E= -1297.81162676465     Delta-E=       -0.381143272087 Rises=F Damp=F
 DIIS: error= 3.25D-03 at cycle   3 NSaved=   3.
 NSaved= 3 IEnMin= 3 EnMin= -1297.81162676465     IErMin= 3 ErrMin= 3.25D-03
 ErrMax= 3.25D-03  0.00D+00 EMaxC= 1.00D-01 BMatC= 2.25D-02 BMatP= 5.95D-01
 IDIUse=3 WtCom= 9.68D-01 WtEn= 3.25D-02
 Coeff-Com:  0.654D-01 0.189D+00 0.746D+00
 Coeff-En:   0.000D+00 0.000D+00 0.100D+01
 Coeff:      0.633D-01 0.182D+00 0.754D+00
 Gap=     0.386 Goal=   None    Shift=    0.000
 RMSDP=2.67D-04 MaxDP=1.13D-02 DE=-3.81D-01 OVMax= 1.31D-02

 Cycle   4  Pass 0  IDiag  1:
 RMSU=  1.90D-04    CP:  1.01D+00  5.21D-01  7.17D-01
 E= -1297.82453515354     Delta-E=       -0.012908388889 Rises=F Damp=F
 DIIS: error= 1.20D-03 at cycle   4 NSaved=   4.
 NSaved= 4 IEnMin= 4 EnMin= -1297.82453515354     IErMin= 4 ErrMin= 1.20D-03
 ErrMax= 1.20D-03  0.00D+00 EMaxC= 1.00D-01 BMatC= 2.73D-03 BMatP= 2.25D-02
 IDIUse=3 WtCom= 9.88D-01 WtEn= 1.20D-02
 Coeff-Com:  0.316D-02 0.494D-01 0.348D+00 0.599D+00
 Coeff-En:   0.000D+00 0.000D+00 0.491D-01 0.951D+00
 Coeff:      0.312D-02 0.488D-01 0.344D+00 0.604D+00
 Gap=     0.378 Goal=   None    Shift=    0.000
 RMSDP=1.03D-04 MaxDP=3.80D-03 DE=-1.29D-02 OVMax= 4.57D-03

 Cycle   5  Pass 0  IDiag  1:
 RMSU=  3.70D-05    CP:  1.01D+00  5.15D-01  8.10D-01  5.60D-01
 E= -1297.82691336668     Delta-E=       -0.002378213135 Rises=F Damp=F
 DIIS: error= 1.71D-04 at cycle   5 NSaved=   5.
 NSaved= 5 IEnMin= 5 EnMin= -1297.82691336668     IErMin= 5 ErrMin= 1.71D-04
 ErrMax= 1.71D-04  0.00D+00 EMaxC= 1.00D-01 BMatC= 4.32D-05 BMatP= 2.73D-03
 IDIUse=3 WtCom= 9.98D-01 WtEn= 1.71D-03
 Coeff-Com: -0.182D-02 0.654D-02 0.639D-01 0.172D+00 0.759D+00
 Coeff-En:   0.000D+00 0.000D+00 0.000D+00 0.000D+00 0.100D+01
 Coeff:     -0.182D-02 0.653D-02 0.638D-01 0.172D+00 0.760D+00
 Gap=     0.377 Goal=   None    Shift=    0.000
 RMSDP=1.60D-05 MaxDP=6.54D-04 DE=-2.38D-03 OVMax= 7.39D-04

 Cycle   6  Pass 0  IDiag  1:
 RMSU=  1.10D-05    CP:  1.01D+00  5.17D-01  8.11D-01  6.07D-01  8.18D-01
 E= -1297.82694134272     Delta-E=       -0.000027976040 Rises=F Damp=F
 DIIS: error= 7.39D-05 at cycle   6 NSaved=   6.
 NSaved= 6 IEnMin= 6 EnMin= -1297.82694134272     IErMin= 6 ErrMin= 7.39D-05
 ErrMax= 7.39D-05  0.00D+00 EMaxC= 1.00D-01 BMatC= 8.41D-06 BMatP= 4.32D-05
 IDIUse=1 WtCom= 1.00D+00 WtEn= 0.00D+00
 Coeff-Com: -0.109D-02 0.524D-03 0.123D-01 0.530D-01 0.371D+00 0.564D+00
 Coeff:     -0.109D-02 0.524D-03 0.123D-01 0.530D-01 0.371D+00 0.564D+00
 Gap=     0.377 Goal=   None    Shift=    0.000
 RMSDP=4.94D-06 MaxDP=3.30D-04 DE=-2.80D-05 OVMax= 3.73D-04

 Initial convergence to 1.0D-05 achieved.  Increase integral accuracy.
 Cycle   7  Pass 1  IDiag  1:
 E= -1297.82682419275     Delta-E=        0.000117149966 Rises=F Damp=F
 DIIS: error= 3.05D-05 at cycle   1 NSaved=   1.
 NSaved= 1 IEnMin= 1 EnMin= -1297.82682419275     IErMin= 1 ErrMin= 3.05D-05
 ErrMax= 3.05D-05  0.00D+00 EMaxC= 1.00D-01 BMatC= 1.18D-06 BMatP= 1.18D-06
 IDIUse=1 WtCom= 1.00D+00 WtEn= 0.00D+00
 Coeff-Com:  0.100D+01
 Coeff:      0.100D+01
 Gap=     0.377 Goal=   None    Shift=    0.000
 RMSDP=4.94D-06 MaxDP=3.30D-04 DE= 1.17D-04 OVMax= 1.54D-04

 Cycle   8  Pass 1  IDiag  1:
 RMSU=  1.42D-05    CP:  1.00D+00
 E= -1297.82682492889     Delta-E=       -0.000000736136 Rises=F Damp=F
 DIIS: error= 2.02D-05 at cycle   2 NSaved=   2.
 NSaved= 2 IEnMin= 2 EnMin= -1297.82682492889     IErMin= 2 ErrMin= 2.02D-05
 ErrMax= 2.02D-05  0.00D+00 EMaxC= 1.00D-01 BMatC= 5.52D-07 BMatP= 1.18D-06
 IDIUse=1 WtCom= 1.00D+00 WtEn= 0.00D+00
 Coeff-Com:  0.374D+00 0.626D+00
 Coeff:      0.374D+00 0.626D+00
 Gap=     0.377 Goal=   None    Shift=    0.000
 RMSDP=1.44D-06 MaxDP=1.15D-04 DE=-7.36D-07 OVMax= 1.10D-04

 Cycle   9  Pass 1  IDiag  1:
 RMSU=  1.43D-06    CP:  1.00D+00  1.01D+00
 E= -1297.82682521499     Delta-E=       -0.000000286104 Rises=F Damp=F
 DIIS: error= 9.76D-06 at cycle   3 NSaved=   3.
 NSaved= 3 IEnMin= 3 EnMin= -1297.82682521499     IErMin= 3 ErrMin= 9.76D-06
 ErrMax= 9.76D-06  0.00D+00 EMaxC= 1.00D-01 BMatC= 1.20D-07 BMatP= 5.52D-07
 IDIUse=1 WtCom= 1.00D+00 WtEn= 0.00D+00
 Coeff-Com: -0.248D-01 0.310D+00 0.715D+00
 Coeff:     -0.248D-01 0.310D+00 0.715D+00
 Gap=     0.377 Goal=   None    Shift=    0.000
 RMSDP=5.70D-07 MaxDP=3.56D-05 DE=-2.86D-07 OVMax= 3.38D-05

 Cycle  10  Pass 1  IDiag  1:
 RMSU=  2.84D-07    CP:  1.00D+00  1.03D+00  7.10D-01
 E= -1297.82682529586     Delta-E=       -0.000000080870 Rises=F Damp=F
 DIIS: error= 5.84D-07 at cycle   4 NSaved=   4.
 NSaved= 4 IEnMin= 4 EnMin= -1297.82682529586     IErMin= 4 ErrMin= 5.84D-07
 ErrMax= 5.84D-07  0.00D+00 EMaxC= 1.00D-01 BMatC= 8.80D-10 BMatP= 1.20D-07
 IDIUse=1 WtCom= 1.00D+00 WtEn= 0.00D+00
 Coeff-Com: -0.116D-01 0.725D-01 0.193D+00 0.746D+00
 Coeff:     -0.116D-01 0.725D-01 0.193D+00 0.746D+00
 Gap=     0.377 Goal=   None    Shift=    0.000
 RMSDP=8.79D-08 MaxDP=3.41D-06 DE=-8.09D-08 OVMax= 4.64D-06

 Cycle  11  Pass 1  IDiag  1:
 RMSU=  8.06D-08    CP:  1.00D+00  1.03D+00  7.31D-01  9.57D-01
 E= -1297.82682529655     Delta-E=       -0.000000000693 Rises=F Damp=F
 DIIS: error= 3.19D-07 at cycle   5 NSaved=   5.
 NSaved= 5 IEnMin= 5 EnMin= -1297.82682529655     IErMin= 5 ErrMin= 3.19D-07
 ErrMax= 3.19D-07  0.00D+00 EMaxC= 1.00D-01 BMatC= 1.88D-10 BMatP= 8.80D-10
 IDIUse=1 WtCom= 1.00D+00 WtEn= 0.00D+00
 Coeff-Com: -0.970D-03-0.146D-01-0.245D-01 0.287D+00 0.753D+00
 Coeff:     -0.970D-03-0.146D-01-0.245D-01 0.287D+00 0.753D+00
 Gap=     0.377 Goal=   None    Shift=    0.000
 RMSDP=3.15D-08 MaxDP=1.44D-06 DE=-6.93D-10 OVMax= 1.89D-06

 Cycle  12  Pass 1  IDiag  1:
 RMSU=  2.02D-08    CP:  1.00D+00  1.03D+00  7.33D-01  1.04D+00  9.20D-01
 E= -1297.82682529664     Delta-E=       -0.000000000087 Rises=F Damp=F
 DIIS: error= 1.01D-07 at cycle   6 NSaved=   6.
 NSaved= 6 IEnMin= 6 EnMin= -1297.82682529664     IErMin= 6 ErrMin= 1.01D-07
 ErrMax= 1.01D-07  0.00D+00 EMaxC= 1.00D-01 BMatC= 2.30D-11 BMatP= 1.88D-10
 IDIUse=1 WtCom= 1.00D+00 WtEn= 0.00D+00
 Coeff-Com:  0.870D-03-0.144D-01-0.328D-01 0.431D-01 0.323D+00 0.681D+00
 Coeff:      0.870D-03-0.144D-01-0.328D-01 0.431D-01 0.323D+00 0.681D+00
 Gap=     0.377 Goal=   None    Shift=    0.000
 RMSDP=1.06D-08 MaxDP=4.17D-07 DE=-8.73D-11 OVMax= 5.98D-07

 Cycle  13  Pass 1  IDiag  1:
 RMSU=  7.20D-09    CP:  1.00D+00  1.03D+00  7.33D-01  1.06D+00  9.88D-01
                    CP:  8.77D-01
 E= -1297.82682529674     Delta-E=       -0.000000000100 Rises=F Damp=F
 DIIS: error= 2.61D-08 at cycle   7 NSaved=   7.
 NSaved= 7 IEnMin= 7 EnMin= -1297.82682529674     IErMin= 7 ErrMin= 2.61D-08
 ErrMax= 2.61D-08  0.00D+00 EMaxC= 1.00D-01 BMatC= 1.32D-12 BMatP= 2.30D-11
 IDIUse=1 WtCom= 1.00D+00 WtEn= 0.00D+00
 Coeff-Com:  0.406D-03-0.455D-02-0.111D-01-0.383D-02 0.736D-01 0.254D+00
 Coeff-Com:  0.691D+00
 Coeff:      0.406D-03-0.455D-02-0.111D-01-0.383D-02 0.736D-01 0.254D+00
 Coeff:      0.691D+00
 Gap=     0.377 Goal=   None    Shift=    0.000
 RMSDP=2.37D-09 MaxDP=1.59D-07 DE=-9.96D-11 OVMax= 1.55D-07

 SCF Done:  E(RM062X) =  -1297.82682530     A.U. after   13 cycles
            NFock= 13  Conv=0.24D-08     -V/T= 2.0029
 KE= 1.294093243357D+03 PE=-7.751009311446D+03 EE= 2.807479881043D+03
 Leave Link  502 at Thu Mar 16 18:58:34 2023, MaxMem=   262144000 cpu:            1456.9 elap:             182.5
 (Enter /dragofs/sw/campus/0.2/software/gaussian/16.gaussian/gaussian/g16_legacy/l601.exe)
 Copying SCF densities to generalized density rwf, IOpCl= 0 IROHF=0.

 **********************************************************************

            Population analysis using the SCF density.

 **********************************************************************

 Orbital symmetries:
       Occupied  (A) (A) (A) (A) (A) (A) (A) (A) (A) (A) (A) (A)
                 (A) (A) (A) (A) (A) (A) (A) (A) (A) (A) (A) (A)
                 (A) (A) (A) (A) (A) (A) (A) (A) (A) (A) (A) (A)
                 (A) (A) (A) (A) (A) (A) (A) (A) (A) (A) (A) (A)
                 (A) (A) (A) (A) (A) (A) (A) (A) (A) (A) (A) (A)
                 (A) (A) (A) (A) (A) (A) (A) (A) (A) (A) (A) (A)
                 (A) (A) (A) (A) (A) (A) (A) (A) (A) (A) (A) (A)
                 (A) (A) (A) (A) (A) (A) (A)
       Virtual   (A) (A) (A) (A) (A) (A) (A) (A) (A) (A) (A) (A)
                 (A) (A) (A) (A) (A) (A) (A) (A) (A) (A) (A) (A)
                 (A) (A) (A) (A) (A) (A) (A) (A) (A) (A) (A) (A)
                 (A) (A) (A) (A) (A) (A) (A) (A) (A) (A) (A) (A)
                 (A) (A) (A) (A) (A) (A) (A) (A) (A) (A) (A) (A)
                 (A) (A) (A) (A) (A) (A) (A) (A) (A) (A) (A) (A)
                 (A) (A) (A) (A) (A) (A) (A) (A) (A) (A) (A) (A)
                 (A) (A) (A) (A) (A) (A) (A) (A) (A) (A) (A) (A)
                 (A) (A) (A) (A) (A) (A) (A) (A) (A) (A) (A) (A)
                 (A) (A) (A) (A) (A) (A) (A) (A) (A) (A) (A) (A)
                 (A) (A) (A) (A) (A) (A) (A) (A) (A) (A) (A) (A)
                 (A) (A) (A) (A) (A) (A) (A) (A) (A) (A) (A) (A)
                 (A) (A) (A) (A) (A) (A) (A) (A) (A) (A) (A) (A)
                 (A) (A) (A) (A) (A) (A) (A) (A) (A) (A) (A) (A)
                 (A) (A) (A) (A) (A) (A) (A) (A) (A) (A) (A) (A)
                 (A) (A) (A) (A) (A) (A) (A) (A) (A) (A) (A) (A)
                 (A) (A) (A) (A) (A) (A) (A) (A) (A) (A) (A) (A)
                 (A) (A) (A) (A) (A) (A) (A) (A) (A) (A) (A) (A)
                 (A) (A) (A) (A) (A) (A) (A) (A) (A) (A) (A) (A)
                 (A) (A) (A) (A) (A) (A) (A) (A) (A) (A) (A) (A)
                 (A) (A) (A) (A) (A) (A) (A) (A) (A) (A) (A) (A)
                 (A) (A) (A) (A) (A) (A) (A) (A) (A) (A) (A) (A)
                 (A) (A) (A) (A) (A) (A) (A) (A) (A) (A) (A) (A)
                 (A) (A) (A) (A) (A) (A) (A) (A) (A) (A) (A) (A)
                 (A) (A) (A) (A) (A) (A) (A) (A) (A) (A) (A) (A)
                 (A) (A) (A) (A) (A) (A) (A) (A) (A) (A) (A) (A)
                 (A) (A) (A) (A) (A) (A) (A) (A) (A) (A) (A) (A)
                 (A) (A) (A) (A) (A) (A) (A) (A) (A) (A) (A) (A)
                 (A) (A) (A) (A) (A) (A) (A) (A) (A) (A) (A) (A)
                 (A) (A) (A) (A) (A) (A) (A) (A) (A) (A) (A) (A)
                 (A) (A) (A) (A) (A) (A) (A) (A) (A) (A) (A) (A)
                 (A) (A) (A) (A) (A) (A) (A) (A) (A) (A) (A) (A)
                 (A) (A) (A) (A) (A) (A) (A) (A) (A) (A) (A) (A)
                 (A) (A) (A) (A) (A) (A) (A) (A) (A) (A) (A) (A)
                 (A) (A) (A) (A) (A) (A) (A) (A) (A) (A) (A) (A)
                 (A) (A) (A) (A) (A) (A) (A) (A) (A) (A) (A) (A)
                 (A) (A) (A) (A) (A) (A) (A) (A) (A) (A) (A) (A)
                 (A) (A) (A) (A) (A) (A) (A) (A) (A) (A) (A)
 The electronic state is 1-A.
 Alpha  occ. eigenvalues --  -19.65750 -19.65749 -19.65318 -19.64866 -19.64330
 Alpha  occ. eigenvalues --  -19.63448 -19.63362 -19.62956 -19.62346 -19.61649
 Alpha  occ. eigenvalues --  -19.61299 -10.66317 -10.65326 -10.61803 -10.61102
 Alpha  occ. eigenvalues --  -10.61027 -10.60911 -10.60093 -10.60086 -10.59917
 Alpha  occ. eigenvalues --  -10.59835 -10.58853 -10.58485  -1.23490  -1.22820
 Alpha  occ. eigenvalues --   -1.18465  -1.17928  -1.17379  -1.16621  -1.15830
 Alpha  occ. eigenvalues --   -1.15432  -1.14450  -1.14186  -1.14151  -0.92347
 Alpha  occ. eigenvalues --   -0.89806  -0.89014  -0.87347  -0.80243  -0.78962
 Alpha  occ. eigenvalues --   -0.76271  -0.73612  -0.72147  -0.71603  -0.69728
 Alpha  occ. eigenvalues --   -0.68758  -0.65441  -0.64982  -0.63839  -0.61600
 Alpha  occ. eigenvalues --   -0.61118  -0.60658  -0.60499  -0.59462  -0.58290
 Alpha  occ. eigenvalues --   -0.58124  -0.57012  -0.55850  -0.55111  -0.53849
 Alpha  occ. eigenvalues --   -0.53294  -0.52883  -0.52355  -0.50721  -0.50571
 Alpha  occ. eigenvalues --   -0.49710  -0.49446  -0.48728  -0.48136  -0.47131
 Alpha  occ. eigenvalues --   -0.46825  -0.46601  -0.45709  -0.44689  -0.43933
 Alpha  occ. eigenvalues --   -0.43373  -0.42390  -0.41988  -0.41050  -0.40766
 Alpha  occ. eigenvalues --   -0.39879  -0.38802  -0.38204  -0.37238  -0.36966
 Alpha  occ. eigenvalues --   -0.36347  -0.35590  -0.35233  -0.34783  -0.34488
 Alpha  occ. eigenvalues --   -0.33677
 Alpha virt. eigenvalues --    0.04069   0.05372   0.06109   0.06468   0.07498
 Alpha virt. eigenvalues --    0.08194   0.09101   0.09399   0.10499   0.11338
 Alpha virt. eigenvalues --    0.11751   0.12229   0.12600   0.12991   0.13414
 Alpha virt. eigenvalues --    0.14891   0.15410   0.15722   0.16575   0.16804
 Alpha virt. eigenvalues --    0.17784   0.17895   0.18606   0.19194   0.19850
 Alpha virt. eigenvalues --    0.20814   0.22401   0.22993   0.23570   0.24018
 Alpha virt. eigenvalues --    0.24510   0.25238   0.25703   0.26878   0.28066
 Alpha virt. eigenvalues --    0.28318   0.29460   0.30512   0.31759   0.32136
 Alpha virt. eigenvalues --    0.32416   0.32902   0.34529   0.34817   0.36509
 Alpha virt. eigenvalues --    0.37509   0.39355   0.39757   0.40592   0.40947
 Alpha virt. eigenvalues --    0.41070   0.41735   0.42346   0.42785   0.44004
 Alpha virt. eigenvalues --    0.45462   0.45914   0.46588   0.47712   0.48222
 Alpha virt. eigenvalues --    0.49218   0.49396   0.49608   0.49718   0.50346
 Alpha virt. eigenvalues --    0.50680   0.52405   0.52887   0.53533   0.53626
 Alpha virt. eigenvalues --    0.55292   0.55638   0.56073   0.56563   0.56877
 Alpha virt. eigenvalues --    0.57265   0.57994   0.58274   0.59133   0.59796
 Alpha virt. eigenvalues --    0.60284   0.61452   0.61627   0.62693   0.63225
 Alpha virt. eigenvalues --    0.63370   0.63913   0.64819   0.65063   0.65332
 Alpha virt. eigenvalues --    0.65662   0.66334   0.67025   0.67171   0.67948
 Alpha virt. eigenvalues --    0.68362   0.68839   0.69439   0.70779   0.71821
 Alpha virt. eigenvalues --    0.72310   0.73187   0.76064   0.78981   0.80301
 Alpha virt. eigenvalues --    0.81753   0.83157   0.84505   0.85757   0.86488
 Alpha virt. eigenvalues --    0.88828   0.89331   0.90142   0.90276   0.91045
 Alpha virt. eigenvalues --    0.91992   0.92396   0.93916   0.95067   0.95159
 Alpha virt. eigenvalues --    0.95923   0.97760   0.98013   0.98593   0.99794
 Alpha virt. eigenvalues --    1.00002   1.00771   1.02300   1.02556   1.03696
 Alpha virt. eigenvalues --    1.03937   1.05534   1.05834   1.07043   1.07641
 Alpha virt. eigenvalues --    1.09724   1.10286   1.10410   1.11606   1.12876
 Alpha virt. eigenvalues --    1.12899   1.14003   1.14340   1.15691   1.16120
 Alpha virt. eigenvalues --    1.16767   1.18502   1.18806   1.19461   1.22211
 Alpha virt. eigenvalues --    1.22855   1.24541   1.25551   1.25961   1.27303
 Alpha virt. eigenvalues --    1.28341   1.30537   1.31371   1.32280   1.34846
 Alpha virt. eigenvalues --    1.36282   1.37364   1.40485   1.40995   1.41547
 Alpha virt. eigenvalues --    1.42924   1.43233   1.44215   1.44637   1.45065
 Alpha virt. eigenvalues --    1.45829   1.47140   1.48116   1.49272   1.50427
 Alpha virt. eigenvalues --    1.51295   1.52120   1.52151   1.52274   1.53588
 Alpha virt. eigenvalues --    1.53882   1.54123   1.54537   1.55465   1.55997
 Alpha virt. eigenvalues --    1.56261   1.56779   1.58155   1.58871   1.59324
 Alpha virt. eigenvalues --    1.59538   1.60277   1.60893   1.61200   1.61876
 Alpha virt. eigenvalues --    1.62894   1.63148   1.63591   1.65003   1.65340
 Alpha virt. eigenvalues --    1.65986   1.66570   1.68130   1.68913   1.69233
 Alpha virt. eigenvalues --    1.69673   1.70701   1.70911   1.72437   1.73448
 Alpha virt. eigenvalues --    1.75304   1.75650   1.76592   1.77968   1.79400
 Alpha virt. eigenvalues --    1.80127   1.80805   1.81313   1.81811   1.83598
 Alpha virt. eigenvalues --    1.84086   1.84773   1.85177   1.86055   1.87425
 Alpha virt. eigenvalues --    1.88908   1.89881   1.91557   1.92610   1.93279
 Alpha virt. eigenvalues --    1.93871   1.94705   1.95915   1.96774   1.98329
 Alpha virt. eigenvalues --    1.98845   1.99836   2.01732   2.02605   2.03170
 Alpha virt. eigenvalues --    2.04692   2.05044   2.06026   2.07992   2.08895
 Alpha virt. eigenvalues --    2.09184   2.09456   2.10432   2.11556   2.12223
 Alpha virt. eigenvalues --    2.13320   2.14200   2.14816   2.15248   2.16240
 Alpha virt. eigenvalues --    2.16786   2.17289   2.18597   2.19090   2.19670
 Alpha virt. eigenvalues --    2.20449   2.23031   2.23555   2.26255   2.26662
 Alpha virt. eigenvalues --    2.28142   2.30554   2.31375   2.32482   2.33701
 Alpha virt. eigenvalues --    2.34640   2.35720   2.41392   2.41640   2.44040
 Alpha virt. eigenvalues --    2.44564   2.46440   2.47228   2.48828   2.50498
 Alpha virt. eigenvalues --    2.52120   2.53613   2.54242   2.54597   2.55520
 Alpha virt. eigenvalues --    2.56234   2.56659   2.57600   2.59036   2.60553
 Alpha virt. eigenvalues --    2.61205   2.61960   2.63953   2.64500   2.64734
 Alpha virt. eigenvalues --    2.65472   2.73687   2.75541   2.77572   2.77829
 Alpha virt. eigenvalues --    2.79905   2.81013   2.81525   2.83487   2.84687
 Alpha virt. eigenvalues --    2.85583   2.86141   2.87867   2.90273   2.92177
 Alpha virt. eigenvalues --    2.93206   2.93917   2.96098   2.97646   2.98613
[...]
    32  H    0.000008   0.000034  -0.000011   0.000000   0.000000  -0.011082
    33  C    0.000002   0.000046  -0.000000   0.000000   0.000000  -0.053146
    34  H    0.000000  -0.000001   0.000000  -0.000000  -0.000000  -0.000025
    35  O    0.000000  -0.000001   0.000000  -0.000000  -0.000000   0.006975
    36  H    0.000000  -0.000000   0.000000  -0.000000  -0.000000   0.001733
    37  C   -0.000002  -0.000020  -0.000000  -0.000000  -0.000000   0.001205
    38  H   -0.000002  -0.000013   0.000000   0.000000  -0.000000  -0.000045
    39  O   -0.000000   0.000000   0.000000  -0.000000   0.000000  -0.000403
    40  H    0.000000   0.000000  -0.000000  -0.000000  -0.000000  -0.000332
    41  C   -0.000008   0.000013   0.000000   0.000001  -0.000000   0.004472
    42  H   -0.000000  -0.000000  -0.000000   0.000000  -0.000000  -0.000164
    43  H   -0.000004   0.000046   0.000000   0.000002   0.000000  -0.001005
    44  O   -0.000001  -0.000009  -0.000000   0.000000  -0.000000  -0.001328
    45  H    0.000263   0.000072  -0.000031  -0.000211   0.000002   0.000563
              25         26         27         28         29         30
     1  C   -0.000248   0.000014   0.000015  -0.000177   0.000002   0.000002
     2  H   -0.000046   0.000028   0.000024  -0.000488  -0.000003   0.000001
     3  O    0.000002   0.000000  -0.000000  -0.000000  -0.000000  -0.000000
     4  H    0.000000  -0.000000  -0.000000  -0.000000  -0.000000  -0.000000
     5  C   -0.000002   0.000261   0.000030  -0.001995  -0.000222  -0.000073
     6  H    0.000631  -0.003316   0.000066   0.008950   0.000022  -0.000004
     7  O    0.000040  -0.000002   0.000001   0.000050   0.000001   0.000002
     8  C    0.000997  -0.000006  -0.000049   0.000116  -0.000039  -0.000008
     9  H   -0.000237  -0.000002  -0.000001  -0.000036   0.000002   0.000000
    10  O   -0.000093  -0.000003  -0.000009   0.000000  -0.000000   0.000000
    11  H    0.000022  -0.000000  -0.000001   0.000000   0.000000  -0.000000
    12  C   -0.000660  -0.000061   0.000181  -0.006310  -0.000030  -0.000007
    13  H   -0.020474   0.001606   0.000186   0.008628   0.000874  -0.000152
    14  O    0.020699   0.000005  -0.000177   0.000378  -0.000510  -0.000046
    15  H   -0.000212  -0.000014   0.000048  -0.000070   0.000007   0.000003
    16  C   -0.021978  -0.000646  -0.000267   0.006568   0.007270  -0.001420
    17  H   -0.000578   0.000042  -0.000008  -0.000308   0.000030   0.000005
    18  O   -0.041688   0.003927  -0.000077  -0.052630  -0.038924   0.001004
    19  C   -0.000069  -0.000006  -0.000006  -0.000077   0.000006  -0.000046
    20  H    0.000443  -0.000022   0.000022   0.001317  -0.000461   0.001161
    21  H    0.000012   0.000002   0.000000  -0.000043  -0.000008  -0.000009
    22  O    0.000001   0.000000   0.000000  -0.000000   0.000000  -0.000001
    23  H   -0.000001   0.000001   0.000000  -0.000008  -0.000000   0.000000
    24  C    0.396737  -0.077385  -0.007529   0.194350   0.191183  -0.051486
    25  H    0.580928   0.000399   0.007986  -0.050651  -0.060426   0.012261
    26  C    0.000399   5.435349   0.383741   0.196882  -0.012120   0.001387
    27  H    0.007986   0.383741   0.557179  -0.040944   0.001857   0.000359
    28  O   -0.050651   0.196882  -0.040944   8.250908  -0.028119   0.001746
    29  C   -0.060426  -0.012120   0.001857  -0.028119   5.239903   0.390878
    30  H    0.012261   0.001387   0.000359   0.001746   0.390878   0.555295
    31  O    0.012286   0.000159  -0.000180   0.001880   0.246967  -0.035432
    32  H   -0.000972  -0.000012   0.000029   0.000519  -0.041547  -0.004294
    33  C   -0.004054  -0.027179  -0.012856  -0.009067   0.224445  -0.052592
    34  H    0.005434  -0.002959   0.005376   0.000267  -0.046481   0.010389
    35  O   -0.000199   0.003004  -0.000111  -0.000073  -0.041456   0.004881
    36  H   -0.000091  -0.000887  -0.000068  -0.000036  -0.011278  -0.001449
    37  C   -0.003770   0.131198  -0.056563  -0.037739  -0.067372  -0.000895
    38  H    0.000076  -0.047545   0.010441   0.003263   0.001906   0.006634
    39  O   -0.000092  -0.048146   0.008581   0.001442   0.006609  -0.000026
    40  H   -0.000023   0.011417  -0.000760  -0.000251   0.001571  -0.000070
    41  C    0.001141   0.285786  -0.029904  -0.037997  -0.001370  -0.000067
    42  H    0.000097  -0.042098  -0.006228   0.004221   0.000012   0.000018
    43  H    0.000010  -0.064018   0.011117  -0.001175  -0.000073  -0.000020
    44  O   -0.000464  -0.042622   0.005129  -0.004175  -0.000042   0.000002
    45  H   -0.000016  -0.004049  -0.002529   0.008538   0.000092  -0.000003
              31         32         33         34         35         36
     1  C    0.000000  -0.000001   0.000000   0.000000  -0.000000  -0.000000
     2  H    0.000000  -0.000000   0.000001   0.000000  -0.000000   0.000000
     3  O    0.000000  -0.000000  -0.000000  -0.000000   0.000000   0.000000
     4  H    0.000000   0.000000   0.000000   0.000000  -0.000000   0.000000
     5  C   -0.000002   0.000186   0.000014  -0.000008  -0.000000   0.000000
     6  H   -0.000006  -0.000016  -0.000151  -0.000007   0.000000  -0.000000
     7  O   -0.000000  -0.000001  -0.000000   0.000000   0.000000  -0.000000
     8  C   -0.000001   0.000002  -0.000000  -0.000003   0.000000   0.000000
     9  H   -0.000000  -0.000001   0.000000   0.000000   0.000000   0.000000
    10  O    0.000000   0.000000   0.000000   0.000000  -0.000000  -0.000000
    11  H    0.000000  -0.000000  -0.000000  -0.000000   0.000000   0.000000
    12  C   -0.000375  -0.000028   0.000041  -0.000009   0.000000   0.000001
    13  H   -0.000079  -0.000008  -0.000054  -0.000026   0.000001  -0.000000
    14  O   -0.000003   0.000210   0.000009  -0.000110  -0.000000   0.000000
    15  H   -0.000002   0.000002   0.000002   0.000005  -0.000000  -0.000000
    16  C    0.000025  -0.000334  -0.000251   0.000032   0.000001   0.000001
    17  H    0.000113  -0.000279   0.000014   0.000002  -0.000000  -0.000000
    18  O   -0.002832   0.015035   0.003757  -0.000220  -0.000015  -0.000007
    19  C   -0.000002   0.000008   0.000002   0.000000   0.000000   0.000000
    20  H    0.000007   0.000034   0.000046  -0.000001  -0.000001  -0.000000
    21  H    0.000000  -0.000011  -0.000000   0.000000   0.000000   0.000000
    22  O    0.000000   0.000000   0.000000  -0.000000  -0.000000  -0.000000
    23  H    0.000000   0.000000   0.000000  -0.000000  -0.000000  -0.000000
    24  C   -0.048232  -0.011082  -0.053146  -0.000025   0.006975   0.001733
    25  H    0.012286  -0.000972  -0.004054   0.005434  -0.000199  -0.000091
    26  C    0.000159  -0.000012  -0.027179  -0.002959   0.003004  -0.000887
    27  H   -0.000180   0.000029  -0.012856   0.005376  -0.000111  -0.000068
    28  O    0.001880   0.000519  -0.009067   0.000267  -0.000073  -0.000036
    29  C    0.246967  -0.041547   0.224445  -0.046481  -0.041456  -0.011278
    30  H   -0.035432  -0.004294  -0.052592   0.010389   0.004881  -0.001449
    31  O    7.963295   0.325489  -0.045357   0.002202  -0.002377   0.014246
    32  H    0.325489   0.434289   0.010224  -0.000671  -0.000447  -0.000716
    33  C   -0.045357   0.010224   5.280642   0.376837   0.245238  -0.040930
    34  H    0.002202  -0.000671   0.376837   0.566655  -0.036530  -0.004583
    35  O   -0.002377  -0.000447   0.245238  -0.036530   7.968707   0.325431
    36  H    0.014246  -0.000716  -0.040930  -0.004583   0.325431   0.431165
    37  C    0.004283  -0.000657   0.217845  -0.049888  -0.049497   0.012381
    38  H   -0.000201  -0.000015  -0.055340   0.011260   0.003609  -0.000747
    39  O   -0.000016   0.000007  -0.029435   0.006219  -0.003747  -0.000458
    40  H   -0.000023   0.000006  -0.005211  -0.001519   0.016258  -0.000911
    41  C    0.000009  -0.000001   0.006473  -0.000742  -0.000056   0.000024
    42  H    0.000000  -0.000000   0.000086   0.000036  -0.000003   0.000002
    43  H    0.000001   0.000001  -0.000313  -0.000057  -0.000007  -0.000002
    44  O    0.000000   0.000000  -0.000155   0.000008   0.000000  -0.000000
    45  H   -0.000001  -0.000001   0.000104   0.000002  -0.000000   0.000000
              37         38         39         40         41         42
     1  C   -0.000001   0.000000   0.000000  -0.000000  -0.000018  -0.000001
     2  H   -0.000004   0.000000   0.000000  -0.000000  -0.000010  -0.000004
     3  O   -0.000000   0.000000   0.000000  -0.000000  -0.000000   0.000000
     4  H   -0.000000  -0.000000   0.000000  -0.000000   0.000000  -0.000000
     5  C   -0.000057   0.000002   0.000000  -0.000000  -0.000145  -0.000009
     6  H    0.000467   0.000004  -0.000000   0.000001   0.002052   0.000148
     7  O    0.000000   0.000000  -0.000000   0.000000  -0.000000   0.000000
     8  C    0.000001  -0.000000  -0.000000   0.000000   0.000007   0.000001
     9  H   -0.000000  -0.000000   0.000000  -0.000000   0.000001   0.000000
    10  O   -0.000000  -0.000000   0.000000   0.000000   0.000001   0.000000
    11  H    0.000000   0.000000  -0.000000   0.000000   0.000000   0.000000
    12  C   -0.000005  -0.000008  -0.000000  -0.000000  -0.000067  -0.000006
    13  H    0.001221   0.000002  -0.000009   0.000002  -0.001414  -0.000001
    14  O    0.000001   0.000000   0.000000   0.000000   0.000000   0.000000
    15  H   -0.000004   0.000000   0.000000  -0.000000   0.000001   0.000000
    16  C    0.000094   0.000009  -0.000000  -0.000000   0.000077  -0.000003
    17  H   -0.000003  -0.000001  -0.000000   0.000000  -0.000001  -0.000000
    18  O   -0.000651  -0.000091   0.000000   0.000001  -0.000131   0.000005
    19  C   -0.000002  -0.000002  -0.000000   0.000000  -0.000008  -0.000000
    20  H   -0.000020  -0.000013   0.000000   0.000000   0.000013  -0.000000
    21  H   -0.000000   0.000000   0.000000  -0.000000   0.000000  -0.000000
    22  O   -0.000000   0.000000  -0.000000  -0.000000   0.000001   0.000000
    23  H   -0.000000  -0.000000   0.000000  -0.000000  -0.000000  -0.000000
    24  C    0.001205  -0.000045  -0.000403  -0.000332   0.004472  -0.000164
    25  H   -0.003770   0.000076  -0.000092  -0.000023   0.001141   0.000097
    26  C    0.131198  -0.047545  -0.048146   0.011417   0.285786  -0.042098
    27  H   -0.056563   0.010441   0.008581  -0.000760  -0.029904  -0.006228
    28  O   -0.037739   0.003263   0.001442  -0.000251  -0.037997   0.004221
    29  C   -0.067372   0.001906   0.006609   0.001571  -0.001370   0.000012
    30  H   -0.000895   0.006634  -0.000026  -0.000070  -0.000067   0.000018
    31  O    0.004283  -0.000201  -0.000016  -0.000023   0.000009   0.000000
    32  H   -0.000657  -0.000015   0.000007   0.000006  -0.000001  -0.000000
    33  C    0.217845  -0.055340  -0.029435  -0.005211   0.006473   0.000086
    34  H   -0.049888   0.011260   0.006219  -0.001519  -0.000742   0.000036
    35  O   -0.049497   0.003609  -0.003747   0.016258  -0.000056  -0.000003
    36  H    0.012381  -0.000747  -0.000458  -0.000911   0.000024   0.000002
    37  C    5.339408   0.382803   0.220216  -0.047645  -0.046769  -0.003328
    38  H    0.382803   0.570678  -0.033698  -0.004178  -0.010676   0.000312
    39  O    0.220216  -0.033698   7.966408   0.322068  -0.000377   0.011711
    40  H   -0.047645  -0.004178   0.322068   0.437057  -0.000326  -0.000217
    41  C   -0.046769  -0.010676  -0.000377  -0.000326   4.817713   0.402915
    42  H   -0.003328   0.000312   0.011711  -0.000217   0.402915   0.526110
    43  H    0.000547   0.005959  -0.000374  -0.000129   0.408858  -0.033795
    44  O    0.005018  -0.000037   0.000014   0.000011   0.276742  -0.028352
    45  H   -0.000821  -0.000143  -0.000015   0.000001  -0.049138   0.007376
              43         44         45
     1  C   -0.000004  -0.000105   0.001063
     2  H    0.000031   0.000614   0.000484
     3  O    0.000000   0.000000   0.000000
     4  H   -0.000000  -0.000000   0.000002
     5  C    0.000017  -0.000569   0.001904
     6  H   -0.000269   0.001117   0.003303
     7  O    0.000000   0.000002  -0.000109
     8  C   -0.000000   0.000006  -0.000132
     9  H   -0.000000  -0.000001  -0.000025
    10  O    0.000000   0.000000  -0.000136
    11  H   -0.000000  -0.000001   0.000006
    12  C   -0.000028  -0.000722   0.001178
    13  H    0.000346   0.008215  -0.001099
    14  O    0.000000   0.000000   0.000001
    15  H   -0.000000  -0.000005   0.000005
    16  C   -0.000016  -0.000016  -0.001195
    17  H   -0.000000  -0.000001  -0.000022
    18  O   -0.000003   0.000004  -0.000015
    19  C   -0.000004  -0.000001   0.000263
    20  H    0.000046  -0.000009   0.000072
    21  H    0.000000  -0.000000  -0.000031
    22  O    0.000002   0.000000  -0.000211
    23  H    0.000000  -0.000000   0.000002
    24  C   -0.001005  -0.001328   0.000563
    25  H    0.000010  -0.000464  -0.000016
    26  C   -0.064018  -0.042622  -0.004049
    27  H    0.011117   0.005129  -0.002529
    28  O   -0.001175  -0.004175   0.008538
    29  C   -0.000073  -0.000042   0.000092
    30  H   -0.000020   0.000002  -0.000003
    31  O    0.000001   0.000000  -0.000001
    32  H    0.000001   0.000000  -0.000001
    33  C   -0.000313  -0.000155   0.000104
    34  H   -0.000057   0.000008   0.000002
    35  O   -0.000007   0.000000  -0.000000
    36  H   -0.000002  -0.000000   0.000000
    37  C    0.000547   0.005018  -0.000821
    38  H    0.005959  -0.000037  -0.000143
    39  O   -0.000374   0.000014  -0.000015
    40  H   -0.000129   0.000011   0.000001
    41  C    0.408858   0.276742  -0.049138
    42  H   -0.033795  -0.028352   0.007376
    43  H    0.586215  -0.036211  -0.009126
    44  O   -0.036211   7.888812   0.327207
    45  H   -0.009126   0.327207   0.460112
 Mulliken charges:
               1
     1  C    0.208406
     2  H    0.158300
     3  O   -0.397873
     4  H    0.254734
     5  C   -0.076776
     6  H    0.152233
     7  O   -0.407364
     8  C    0.011386
     9  H    0.141330
    10  O   -0.432392
    11  H    0.273886
    12  C   -0.069202
    13  H    0.167629
    14  O   -0.414274
    15  H    0.275603
    16  C    0.041718
    17  H    0.177899
    18  O   -0.409168
    19  C    0.009364
    20  H    0.150486
    21  H    0.122455
    22  O   -0.411669
    23  H    0.256585
    24  C    0.201051
    25  H    0.166840
    26  C   -0.082107
    27  H    0.165899
    28  O   -0.417655
    29  C    0.036840
    30  H    0.162069
    31  O   -0.435840
    32  H    0.275049
    33  C   -0.029688
    34  H    0.159115
    35  O   -0.439588
    36  H    0.277180
    37  C    0.049007
    38  H    0.155782
    39  O   -0.426479
    40  H    0.273204
    41  C   -0.027069
    42  H    0.161162
    43  H    0.133480
    44  O   -0.398085
    45  H    0.256536
 Sum of Mulliken charges =  -0.00000
 Mulliken charges with hydrogens summed into heavy atoms:
               1
     1  C    0.366706
     3  O   -0.143139
     5  C    0.075457
     7  O   -0.407364
     8  C    0.152716
    10  O   -0.158506
    12  C    0.098427
    14  O   -0.138672
    16  C    0.219617
    18  O   -0.409168
    19  C    0.282305
    22  O   -0.155085
    24  C    0.367891
    26  C    0.083791
    28  O   -0.417655
    29  C    0.198909
    31  O   -0.160791
    33  C    0.129427
    35  O   -0.162409
    37  C    0.204790
    39  O   -0.153275
    41  C    0.267574
    44  O   -0.141549
 Electronic spatial extent (au):  <R**2>=           7831.1256
 Charge=             -0.0000 electrons
 Dipole moment (field-independent basis, Debye):
    X=              2.0878    Y=              2.8928    Z=              1.6636  Tot=              3.9364
 Quadrupole moment (field-independent basis, Debye-Ang):
   XX=           -121.6597   YY=           -143.9903   ZZ=           -144.2050
   XY=              2.9143   XZ=              6.8848   YZ=             -0.3073
 Traceless Quadrupole moment (field-independent basis, Debye-Ang):
   XX=             14.9586   YY=             -7.3719   ZZ=             -7.5867
   XY=              2.9143   XZ=              6.8848   YZ=             -0.3073
 Octapole moment (field-independent basis, Debye-Ang**2):
  XXX=             72.1780  YYY=             53.6512  ZZZ=             58.7644  XYY=             -0.4380
  XXY=             36.1947  XXZ=             28.5317  XZZ=             -3.6351  YZZ=             -8.3944
  YYZ=            -13.9764  XYZ=             -5.1121
 Hexadecapole moment (field-independent basis, Debye-Ang**3):
 XXXX=          -5559.6737 YYYY=          -1839.8537 ZZZZ=          -1721.7368 XXXY=             66.1440
 XXXZ=             46.4429 YYYX=            -57.6005 YYYZ=             -9.4092 ZZZX=            106.9796
 ZZZY=             17.8602 XXYY=          -1326.0939 XXZZ=          -1235.5433 YYZZ=           -570.6298
 XXYZ=             18.4734 YYXZ=             13.8993 ZZXY=            -27.5482
 N-N= 2.358254846227D+03 E-N=-7.764229488844D+03  KE= 1.294097791713D+03
 No NMR shielding tensors so no spin-rotation constants.
 Leave Link  601 at Thu Mar 16 19:28:10 2023, MaxMem=   262144000 cpu:               1.7 elap:               0.2
 (Enter /dragofs/sw/campus/0.2/software/gaussian/16.gaussian/gaussian/g16_legacy/l9999.exe)
 1\1\GINC-DRAGO31070245\FOpt\RM062X\6-311G(d,p)\C12H22O11\JRAMOS\16-Mar
 -2023\0\\#p opt M062X/6-311g(d,p)\\Optimization 03-DIHEDRAL_PHI_PSI_14
 b/dimer14b_000_008.log\\0,1\C,3.4170488925,-0.7601349258,-0.1115489738
 \H,2.8934227052,-1.5178904786,-0.7093732493\O,4.7674248287,-1.08608800
 72,-0.159494208\H,5.2530736146,-0.3389504088,0.2083350001\C,1.85974672
 ,0.9120818199,-0.7147698147\H,1.3057658969,0.1744085177,-1.3084342782\
 O,3.2341442662,0.5277133123,-0.6503020464\C,2.9007804802,-0.7712791713
 ,1.3216137352\H,3.4849880887,-0.0353780614,1.8966016448\O,2.9955188923
 ,-2.0540813505,1.8953503857\H,3.8930774618,-2.3731643768,1.755214352\C
 ,1.4351345513,-0.3745528294,1.3752776909\H,0.8683788843,-1.1358274323,
 0.8168928125\O,0.9879981504,-0.2893880309,2.7086612663\H,1.2395661702,
 -1.1151451136,3.1372516767\C,1.2735205934,0.9805648732,0.7016635667\H,
 1.8373241225,1.7190019596,1.2806362223\O,-0.0601961933,1.4764413176,0.
 6617767871\C,1.8307758072,2.2409924634,-1.4411572707\H,0.7972112788,2.
 5652695393,-1.555367428\H,2.3688918931,2.9847418374,-0.8363709675\O,2.
 3891378171,2.1158291228,-2.7262946782\H,3.247259173,1.6956296303,-2.61
 05237235\C,-1.0937079981,0.5508710871,0.6001527218\H,-1.04686471,-0.13
 98455048,1.4540732927\C,-2.0134588163,-1.1829135401,-0.7035146725\H,-1
 .9526587579,-1.8411400965,0.1756442198\O,-1.0062139933,-0.1751331638,-
 0.6108491336\C,-2.3985144017,1.3304598523,0.6273041815\H,-2.3986424077
 ,2.0192117406,-0.2281514302\O,-2.5747279104,2.0182805531,1.8446659385\
 H,-1.7991420978,2.5720437805,1.979118527\C,-3.550943983,0.3531572836,0
 .4953232783\H,-3.5495900103,-0.3020386223,1.3792385686\O,-4.7936260974
 ,1.0132590257,0.3796129125\H,-4.8757586353,1.6010363284,1.1375150664\C
 ,-3.3817203979,-0.5138333032,-0.7398733809\H,-3.436637867,0.1337605255
 ,-1.6272858265\O,-4.3634681611,-1.5223837887,-0.7873925458\H,-5.211374
 6238,-1.0890470376,-0.6430899491\C,-1.7001798277,-1.9921143267,-1.9447
 457537\H,-2.4067625564,-2.8174940725,-2.0216178552\H,-1.8123408869,-1.
 349317,-2.8275575568\O,-0.4016406913,-2.5395747581,-1.8664417746\H,0.2
 008627365,-1.7941191694,-1.7927483304\\Version=EM64L-G16RevA.03\State=
 1-A\HF=-1297.8286198\RMSD=5.796e-09\RMSF=9.144e-06\Dipole=0.8165376,0.
 584944,1.1787767\Quadrupole=10.8335096,-5.2506488,-5.5828608,-1.400623
 2,5.801536,-0.2156133\PG=C01 [X(C12H22O11)]\\@


 ERWIN WITH HIS PSI CAN DO
 CALCULATIONS QUITE A FEW.
 BUT ONE THING HAS NOT BEEN SEEN
 JUST WHAT DOES PSI REALLY MEAN.
 -- WALTER HUCKEL, TRANS. BY FELIX BLOCH
 Job cpu time:       0 days  4 hours 21 minutes  2.8 seconds.
 Elapsed time:       0 days  0 hours 32 minutes 44.3 seconds.
 File lengths (MBytes):  RWF=    189 Int=      0 D2E=      0 Chk=     24 Scr=      1
 Normal termination of Gaussian 16 at Thu Mar 16 19:28:11 2023.
