 Entering Gaussian System, Link 0=/dragofs/sw/campus/0.2/software/gaussian/16.gaussian/gaussian/g16_legacy/g16
 Input=dimer14b_000_001_opt.com
 Output=dimer14b_000_001_opt.log
 Initial command:
 /dragofs/sw/campus/0.2/software/gaussian/16.gaussian/gaussian/g16_legacy/l1.exe "/tmp/jramos/82032/Gau-27325.inp" -scrdir="/tmp/jramos/82032/"
 Entering Link 1 = /dragofs/sw/campus/0.2/software/gaussian/16.gaussian/gaussian/g16_legacy/l1.exe PID=     27326.
  
 Copyright (c) 1988,1990,1992,1993,1995,1998,2003,2009,2016,
            Gaussian, Inc.  All Rights Reserved.
  
 This is part of the Gaussian(R) 16 program.  It is based on
 the Gaussian(R) 09 system (copyright 2009, Gaussian, Inc.),
 the Gaussian(R) 03 system (copyright 2003, Gaussian, Inc.),
 the Gaussian(R) 98 system (copyright 1998, Gaussian, Inc.),
 the Gaussian(R) 94 system (copyright 1995, Gaussian, Inc.),
 the Gaussian 92(TM) system (copyright 1992, Gaussian, Inc.),
 the Gaussian 90(TM) system (copyright 1990, Gaussian, Inc.),
 the Gaussian 88(TM) system (copyright 1988, Gaussian, Inc.),
 the Gaussian 86(TM) system (copyright 1986, Carnegie Mellon
 University), and the Gaussian 82(TM) system (copyright 1983,
 Carnegie Mellon University). Gaussian is a federally registered
 trademark of Gaussian, Inc.
  
 This software contains proprietary and confidential information,
 including trade secrets, belonging to Gaussian, Inc.
  
 This software is provided under written license and may be
 used, copied, transmitted, or stored only in accord with that
 written license.
  
 The following legend is applicable only to US Government
 contracts under FAR:
  
                    RESTRICTED RIGHTS LEGEND
  
 Use, reproduction and disclosure by the US Government is
 subject to restrictions as set forth in subparagraphs (a)
 and (c) of the Commercial Computer Software - Restricted
 Rights clause in FAR 52.227-19.
  
 Gaussian, Inc.
 340 Quinnipiac St., Bldg. 40, Wallingford CT 06492
  
  
 ---------------------------------------------------------------
 Warning -- This program may not be used in any manner that
 competes with the business of Gaussian, Inc. or will provide
 assistance to any competitor of Gaussian, Inc.  The licensee
 of this program is prohibited from giving any competitor of
 Gaussian, Inc. access to this program.  By using this program,
 the user acknowledges that Gaussian, Inc. is engaged in the
 business of creating and licensing software in the field of
 computational chemistry and represents and warrants to the
 licensee that it is not a competitor of Gaussian, Inc. and that
 it will not use this program in any manner prohibited above.
 ---------------------------------------------------------------
  

 Cite this work as:
 Gaussian 16, Revision A.03,
 M. J. Frisch, G. W. Trucks, H. B. Schlegel, G. E. Scuseria, 
 M. A. Robb, J. R. Cheeseman, G. Scalmani, V. Barone, 
 G. A. Petersson, H. Nakatsuji, X. Li, M. Caricato, A. V. Marenich, 
 J. Bloino, B. G. Janesko, R. Gomperts, B. Mennucci, H. P. Hratchian, 
 J. V. Ortiz, A. F. Izmaylov, J. L. Sonnenberg, D. Williams-Young, 
 F. Ding, F. Lipparini, F. Egidi, J. Goings, B. Peng, A. Petrone, 
 T. Henderson, D. Ranasinghe, V. G. Zakrzewski, J. Gao, N. Rega, 
 G. Zheng, W. Liang, M. Hada, M. Ehara, K. Toyota, R. Fukuda, 
 J. Hasegawa, M. Ishida, T. Nakajima, Y. Honda, O. Kitao, H. Nakai, 
 T. Vreven, K. Throssell, J. A. Montgomery, Jr., J. E. Peralta, 
 F. Ogliaro, M. J. Bearpark, J. J. Heyd, E. N. Brothers, K. N. Kudin, 
 V. N. Staroverov, T. A. Keith, R. Kobayashi, J. Normand, 
 K. Raghavachari, A. P. Rendell, J. C. Burant, S. S. Iyengar, 
 J. Tomasi, M. Cossi, J. M. Millam, M. Klene, C. Adamo, R. Cammi, 
 J. W. Ochterski, R. L. Martin, K. Morokuma, O. Farkas, 
 J. B. Foresman, and D. J. Fox, Gaussian, Inc., Wallingford CT, 2016.
 
 ******************************************
 Gaussian 16:  EM64L-G16RevA.03 25-Dec-2016
                16-Mar-2023 
 ******************************************
 %chk=dimer14b_000_001_opt.chk
 %mem=2000MB
 %nproc=8
 Will use up to    8 processors via shared memory.
 ------------------------
 #p opt M062X/6-311g(d,p)
 ------------------------
 1/18=20,19=15,26=3,38=1/1,3;
 2/9=110,12=2,17=6,18=5,40=1/2;
 3/5=4,6=6,7=101,11=2,25=1,30=1,71=1,74=-55/1,2,3;
 4//1;
 5/5=2,38=5/2;
 6/7=2,8=2,9=2,10=2,28=1/1;
 7//1,2,3,16;
 1/18=20,19=15,26=3/3(2);
 2/9=110/2;
 99//99;
 2/9=110/2;
 3/5=4,6=6,7=101,11=2,25=1,30=1,71=1,74=-55/1,2,3;
 4/5=5,16=3,69=1/1;
 5/5=2,38=5/2;
 7//1,2,3,16;
 1/18=20,19=15,26=3/3(-5);
 2/9=110/2;
 6/7=2,8=2,9=2,10=2,19=2,28=1/1;
 99/9=1/99;
 Leave Link    1 at Thu Mar 16 17:56:14 2023, MaxMem=   262144000 cpu:               0.2 elap:               0.0
 (Enter /dragofs/sw/campus/0.2/software/gaussian/16.gaussian/gaussian/g16_legacy/l101.exe)
 ---------------------------------------------------------
 Optimization 03-DIHEDRAL_PHI_PSI_14b/dimer14b_000_001.log
 ---------------------------------------------------------
 Symbolic Z-matrix:
 Charge =  0 Multiplicity = 1
 C                    -4.1108    0.05701   0.0051 
 H                    -4.37305   0.68907   0.86234 
 O                    -5.28536  -0.23009  -0.64981 
 H                    -5.11171  -0.91739  -1.30068 
 C                    -2.07505   1.26266  -0.26344 
 H                    -2.34042   1.85241   0.62719 
 O                    -3.2575    0.77618  -0.88016 
 C                    -3.35911  -1.18466   0.47513 
 H                    -3.13719  -1.79616  -0.41547 
 O                    -4.16004  -1.88598   1.38856 
 H                    -3.60427  -2.57324   1.77123 
 C                    -2.03732  -0.78665   1.11028 
 H                    -2.24599  -0.20526   2.0203 
 O                    -1.3618   -1.9857    1.43391 
 H                    -0.46607  -1.7489    1.69939 
 C                    -1.21869   0.0734    0.16984 
 H                    -0.90283  -0.5173   -0.69615 
 O                    -0.07841   0.52101   0.90619 
 C                    -1.42276   2.18546  -1.27658 
 H                    -0.54258   2.65754  -0.8341 
 H                    -1.10617   1.59103  -2.1462 
 O                    -2.30742   3.21205  -1.64562 
 H                    -3.13641   2.78028  -1.87927 
 C                     1.11512   0.48422   0.19641 
 H                     1.01897   1.01575  -0.76487 
 C                     2.61761  -1.04246  -0.81447 
 H                     2.51648  -0.52048  -1.77641 
 O                     1.42104  -0.86933  -0.05389 
 C                     2.20008   1.13316   1.03431 
 H                     2.25639   0.60558   1.99544 
 O                     1.9589    2.51191   1.21076 
 H                     1.14416   2.6085    1.71317 
 C                     3.52053   0.9961    0.30004 
 H                     3.45519   1.56502  -0.63955 
 O                     4.60588   1.45448   1.07577 
 H                     4.42479   2.3695    1.31333 
 C                     3.79405  -0.45947  -0.04047 
 H                     3.90913  -1.01488   0.90251 
 O                     4.9437   -0.58119  -0.84233 
 H                     5.64169  -0.08137  -0.4057 
 C                     2.74492  -2.53291  -1.06255 
 H                     3.60189  -2.71566  -1.70987 
 H                     2.92043  -3.03492  -0.1012 
 O                     1.59786  -3.03455  -1.70637 
 H                     0.8512   -2.83443  -1.13312 
 
 ITRead=  0  0  0  0  0  0  0  0  0  0  0  0  0  0  0  0  0  0  0  0
 ITRead=  0  0  0  0  0  0  0  0  0  0  0  0  0  0  0  0  0  0  0  0
 ITRead=  0  0  0  0  0
 MicOpt= -1 -1 -1 -1 -1 -1 -1 -1 -1 -1 -1 -1 -1 -1 -1 -1 -1 -1 -1 -1
 MicOpt= -1 -1 -1 -1 -1 -1 -1 -1 -1 -1 -1 -1 -1 -1 -1 -1 -1 -1 -1 -1
 MicOpt= -1 -1 -1 -1 -1
 NAtoms=     45 NQM=       45 NQMF=       0 NMMI=      0 NMMIF=      0
                NMic=       0 NMicF=      0.
                    Isotopes and Nuclear Properties:
 (Nuclear quadrupole moments (NQMom) in fm**2, nuclear magnetic moments (NMagM)
  in nuclear magnetons)

  Atom         1           2           3           4           5           6           7           8           9          10
 IAtWgt=          12           1          16           1          12           1          16          12           1          16
 AtmWgt=  12.0000000   1.0078250  15.9949146   1.0078250  12.0000000   1.0078250  15.9949146  12.0000000   1.0078250  15.9949146
 NucSpn=           0           1           0           1           0           1           0           0           1           0
 AtZEff=  -0.0000000  -0.0000000  -0.0000000  -0.0000000  -0.0000000  -0.0000000  -0.0000000  -0.0000000  -0.0000000  -0.0000000
 NQMom=    0.0000000   0.0000000   0.0000000   0.0000000   0.0000000   0.0000000   0.0000000   0.0000000   0.0000000   0.0000000
 NMagM=    0.0000000   2.7928460   0.0000000   2.7928460   0.0000000   2.7928460   0.0000000   0.0000000   2.7928460   0.0000000
 AtZNuc=   6.0000000   1.0000000   8.0000000   1.0000000   6.0000000   1.0000000   8.0000000   6.0000000   1.0000000   8.0000000

  Atom        11          12          13          14          15          16          17          18          19          20
 IAtWgt=           1          12           1          16           1          12           1          16          12           1
 AtmWgt=   1.0078250  12.0000000   1.0078250  15.9949146   1.0078250  12.0000000   1.0078250  15.9949146  12.0000000   1.0078250
 NucSpn=           1           0           1           0           1           0           1           0           0           1
 AtZEff=  -0.0000000  -0.0000000  -0.0000000  -0.0000000  -0.0000000  -0.0000000  -0.0000000  -0.0000000  -0.0000000  -0.0000000
 NQMom=    0.0000000   0.0000000   0.0000000   0.0000000   0.0000000   0.0000000   0.0000000   0.0000000   0.0000000   0.0000000
 NMagM=    2.7928460   0.0000000   2.7928460   0.0000000   2.7928460   0.0000000   2.7928460   0.0000000   0.0000000   2.7928460
 AtZNuc=   1.0000000   6.0000000   1.0000000   8.0000000   1.0000000   6.0000000   1.0000000   8.0000000   6.0000000   1.0000000

  Atom        21          22          23          24          25          26          27          28          29          30
 IAtWgt=           1          16           1          12           1          12           1          16          12           1
 AtmWgt=   1.0078250  15.9949146   1.0078250  12.0000000   1.0078250  12.0000000   1.0078250  15.9949146  12.0000000   1.0078250
 NucSpn=           1           0           1           0           1           0           1           0           0           1
 AtZEff=  -0.0000000  -0.0000000  -0.0000000  -0.0000000  -0.0000000  -0.0000000  -0.0000000  -0.0000000  -0.0000000  -0.0000000
 NQMom=    0.0000000   0.0000000   0.0000000   0.0000000   0.0000000   0.0000000   0.0000000   0.0000000   0.0000000   0.0000000
 NMagM=    2.7928460   0.0000000   2.7928460   0.0000000   2.7928460   0.0000000   2.7928460   0.0000000   0.0000000   2.7928460
 AtZNuc=   1.0000000   8.0000000   1.0000000   6.0000000   1.0000000   6.0000000   1.0000000   8.0000000   6.0000000   1.0000000

  Atom        31          32          33          34          35          36          37          38          39          40
 IAtWgt=          16           1          12           1          16           1          12           1          16           1
 AtmWgt=  15.9949146   1.0078250  12.0000000   1.0078250  15.9949146   1.0078250  12.0000000   1.0078250  15.9949146   1.0078250
 NucSpn=           0           1           0           1           0           1           0           1           0           1
 AtZEff=  -0.0000000  -0.0000000  -0.0000000  -0.0000000  -0.0000000  -0.0000000  -0.0000000  -0.0000000  -0.0000000  -0.0000000
 NQMom=    0.0000000   0.0000000   0.0000000   0.0000000   0.0000000   0.0000000   0.0000000   0.0000000   0.0000000   0.0000000
 NMagM=    0.0000000   2.7928460   0.0000000   2.7928460   0.0000000   2.7928460   0.0000000   2.7928460   0.0000000   2.7928460
 AtZNuc=   8.0000000   1.0000000   6.0000000   1.0000000   8.0000000   1.0000000   6.0000000   1.0000000   8.0000000   1.0000000

  Atom        41          42          43          44          45
 IAtWgt=          12           1           1          16           1
 AtmWgt=  12.0000000   1.0078250   1.0078250  15.9949146   1.0078250
 NucSpn=           0           1           1           0           1
 AtZEff=  -0.0000000  -0.0000000  -0.0000000  -0.0000000  -0.0000000
 NQMom=    0.0000000   0.0000000   0.0000000   0.0000000   0.0000000
 NMagM=    0.0000000   2.7928460   2.7928460   0.0000000   2.7928460
 AtZNuc=   6.0000000   1.0000000   1.0000000   8.0000000   1.0000000
 Leave Link  101 at Thu Mar 16 17:56:15 2023, MaxMem=   262144000 cpu:               1.2 elap:               0.2
 (Enter /dragofs/sw/campus/0.2/software/gaussian/16.gaussian/gaussian/g16_legacy/l103.exe)

 GradGradGradGradGradGradGradGradGradGradGradGradGradGradGradGradGradGrad
 Berny optimization.
 Initialization pass.
                           ----------------------------
                           !    Initial Parameters    !
                           ! (Angstroms and Degrees)  !
 --------------------------                            --------------------------
 ! Name  Definition              Value          Derivative Info.                !
 --------------------------------------------------------------------------------
 ! R1    R(1,2)                  1.0969         estimate D2E/DX2                !
 ! R2    R(1,3)                  1.3751         estimate D2E/DX2                !
 ! R3    R(1,7)                  1.4244         estimate D2E/DX2                !
 ! R4    R(1,8)                  1.5257         estimate D2E/DX2                !
 ! R5    R(3,4)                  0.9624         estimate D2E/DX2                !
 ! R6    R(5,6)                  1.1007         estimate D2E/DX2                !
 ! R7    R(5,7)                  1.4196         estimate D2E/DX2                !
 ! R8    R(5,16)                 1.5282         estimate D2E/DX2                !
 ! R9    R(5,19)                 1.5177         estimate D2E/DX2                !
 ! R10   R(8,9)                  1.1029         estimate D2E/DX2                !
 ! R11   R(8,10)                 1.4028         estimate D2E/DX2                !
 ! R12   R(8,12)                 1.5195         estimate D2E/DX2                !
 ! R13   R(10,11)                0.9631         estimate D2E/DX2                !
 ! R14   R(12,13)                1.0999         estimate D2E/DX2                !
 ! R15   R(12,14)                1.4138         estimate D2E/DX2                !
 ! R16   R(12,16)                1.5147         estimate D2E/DX2                !
 ! R17   R(14,15)                0.9638         estimate D2E/DX2                !
 ! R18   R(16,17)                1.0948         estimate D2E/DX2                !
 ! R19   R(16,18)                1.4293         estimate D2E/DX2                !
 ! R20   R(18,24)                1.3891         estimate D2E/DX2                !
 ! R21   R(19,20)                1.0924         estimate D2E/DX2                !
 ! R22   R(19,21)                1.0999         estimate D2E/DX2                !
 ! R23   R(19,22)                1.4045         estimate D2E/DX2                !
 ! R24   R(22,23)                0.9635         estimate D2E/DX2                !
 ! R25   R(24,25)                1.1027         estimate D2E/DX2                !
 ! R26   R(24,28)                1.4101         estimate D2E/DX2                !
 ! R27   R(24,29)                1.5167         estimate D2E/DX2                !
 ! R28   R(26,27)                1.0991         estimate D2E/DX2                !
 ! R29   R(26,28)                1.4284         estimate D2E/DX2                !
 ! R30   R(26,37)                1.5241         estimate D2E/DX2                !
 ! R31   R(26,41)                1.5163         estimate D2E/DX2                !
 ! R32   R(29,30)                1.0979         estimate D2E/DX2                !
 ! R33   R(29,31)                1.4108         estimate D2E/DX2                !
 ! R34   R(29,33)                1.5171         estimate D2E/DX2                !
 ! R35   R(31,32)                0.9621         estimate D2E/DX2                !
 ! R36   R(33,34)                1.1003         estimate D2E/DX2                !
 ! R37   R(33,35)                1.4106         estimate D2E/DX2                !
 ! R38   R(33,37)                1.5197         estimate D2E/DX2                !
 ! R39   R(35,36)                0.9625         estimate D2E/DX2                !
 ! R40   R(37,38)                1.1004         estimate D2E/DX2                !
 ! R41   R(37,39)                1.4069         estimate D2E/DX2                !
 ! R42   R(39,40)                0.9631         estimate D2E/DX2                !
 ! R43   R(41,42)                1.0894         estimate D2E/DX2                !
 ! R44   R(41,43)                1.0986         estimate D2E/DX2                !
 ! R45   R(41,44)                1.4078         estimate D2E/DX2                !
 ! R46   R(44,45)                0.9624         estimate D2E/DX2                !
 ! A1    A(2,1,3)              106.7562         estimate D2E/DX2                !
 ! A2    A(2,1,7)              109.7545         estimate D2E/DX2                !
 ! A3    A(2,1,8)              110.2423         estimate D2E/DX2                !
 ! A4    A(3,1,7)              108.7297         estimate D2E/DX2                !
 ! A5    A(3,1,8)              113.4312         estimate D2E/DX2                !
 ! A6    A(7,1,8)              107.8917         estimate D2E/DX2                !
 ! A7    A(1,3,4)              108.4867         estimate D2E/DX2                !
 ! A8    A(6,5,7)              109.5314         estimate D2E/DX2                !
 ! A9    A(6,5,16)             108.8241         estimate D2E/DX2                !
 ! A10   A(6,5,19)             108.542          estimate D2E/DX2                !
 ! A11   A(7,5,16)             108.8596         estimate D2E/DX2                !
 ! A12   A(7,5,19)             106.0423         estimate D2E/DX2                !
 ! A13   A(16,5,19)            114.9349         estimate D2E/DX2                !
 ! A14   A(1,7,5)              113.7037         estimate D2E/DX2                !
 ! A15   A(1,8,9)              107.554          estimate D2E/DX2                !
 ! A16   A(1,8,10)             109.0376         estimate D2E/DX2                !
 ! A17   A(1,8,12)             110.1323         estimate D2E/DX2                !
 ! A18   A(9,8,10)             111.3164         estimate D2E/DX2                !
 ! A19   A(9,8,12)             107.9226         estimate D2E/DX2                !
 ! A20   A(10,8,12)            110.8201         estimate D2E/DX2                !
 ! A21   A(8,10,11)            106.6185         estimate D2E/DX2                !
 ! A22   A(8,12,13)            108.6184         estimate D2E/DX2                !
 ! A23   A(8,12,14)            106.8085         estimate D2E/DX2                !
 ! A24   A(8,12,16)            111.0589         estimate D2E/DX2                !
 ! A25   A(13,12,14)           110.4615         estimate D2E/DX2                !
 ! A26   A(13,12,16)           108.4274         estimate D2E/DX2                !
 ! A27   A(14,12,16)           111.4357         estimate D2E/DX2                !
 ! A28   A(12,14,15)           107.3818         estimate D2E/DX2                !
 ! A29   A(5,16,12)            108.3639         estimate D2E/DX2                !
 ! A30   A(5,16,17)            110.9332         estimate D2E/DX2                !
 ! A31   A(5,16,18)            110.4519         estimate D2E/DX2                !
 ! A32   A(12,16,17)           109.9184         estimate D2E/DX2                !
 ! A33   A(12,16,18)           106.8062         estimate D2E/DX2                !
 ! A34   A(17,16,18)           110.2614         estimate D2E/DX2                !
 ! A35   A(16,18,24)           114.4531         estimate D2E/DX2                !
 ! A36   A(5,19,20)            109.7942         estimate D2E/DX2                !
 ! A37   A(5,19,21)            108.8376         estimate D2E/DX2                !
 ! A38   A(5,19,22)            110.4319         estimate D2E/DX2                !
 ! A39   A(20,19,21)           108.7764         estimate D2E/DX2                !
 ! A40   A(20,19,22)           107.3415         estimate D2E/DX2                !
 ! A41   A(21,19,22)           111.6273         estimate D2E/DX2                !
 ! A42   A(19,22,23)           106.1481         estimate D2E/DX2                !
 ! A43   A(18,24,25)           110.9625         estimate D2E/DX2                !
 ! A44   A(18,24,28)           107.6092         estimate D2E/DX2                !
 ! A45   A(18,24,29)           108.7245         estimate D2E/DX2                !
 ! A46   A(25,24,28)           109.0802         estimate D2E/DX2                !
 ! A47   A(25,24,29)           109.74           estimate D2E/DX2                !
 ! A48   A(28,24,29)           110.7067         estimate D2E/DX2                !
 ! A49   A(27,26,28)           109.3531         estimate D2E/DX2                !
 ! A50   A(27,26,37)           109.5007         estimate D2E/DX2                !
 ! A51   A(27,26,41)           109.3511         estimate D2E/DX2                !
 ! A52   A(28,26,37)           109.2591         estimate D2E/DX2                !
 ! A53   A(28,26,41)           106.0571         estimate D2E/DX2                !
 ! A54   A(37,26,41)           113.2199         estimate D2E/DX2                !
 ! A55   A(24,28,26)           113.1171         estimate D2E/DX2                !
 ! A56   A(24,29,30)           108.3449         estimate D2E/DX2                !
 ! A57   A(24,29,31)           111.4055         estimate D2E/DX2                !
 ! A58   A(24,29,33)           108.4569         estimate D2E/DX2                !
 ! A59   A(30,29,31)           111.6492         estimate D2E/DX2                !
 ! A60   A(30,29,33)           109.6125         estimate D2E/DX2                !
 ! A61   A(31,29,33)           107.3149         estimate D2E/DX2                !
 ! A62   A(29,31,32)           107.9519         estimate D2E/DX2                !
 ! A63   A(29,33,34)           108.3539         estimate D2E/DX2                !
 ! A64   A(29,33,35)           111.9732         estimate D2E/DX2                !
 ! A65   A(29,33,37)           110.5875         estimate D2E/DX2                !
 ! A66   A(34,33,35)           110.3195         estimate D2E/DX2                !
 ! A67   A(34,33,37)           108.3357         estimate D2E/DX2                !
 ! A68   A(35,33,37)           107.2162         estimate D2E/DX2                !
 ! A69   A(33,35,36)           107.4502         estimate D2E/DX2                !
 ! A70   A(26,37,33)           109.9518         estimate D2E/DX2                !
 ! A71   A(26,37,38)           108.8339         estimate D2E/DX2                !
 ! A72   A(26,37,39)           107.9507         estimate D2E/DX2                !
 ! A73   A(33,37,38)           108.0742         estimate D2E/DX2                !
 ! A74   A(33,37,39)           110.9553         estimate D2E/DX2                !
 ! A75   A(38,37,39)           111.0555         estimate D2E/DX2                !
 ! A76   A(37,39,40)           106.7916         estimate D2E/DX2                !
 ! A77   A(26,41,42)           109.1563         estimate D2E/DX2                !
 ! A78   A(26,41,43)           108.6263         estimate D2E/DX2                !
 ! A79   A(26,41,44)           110.8952         estimate D2E/DX2                !
 ! A80   A(42,41,43)           108.5193         estimate D2E/DX2                !
 ! A81   A(42,41,44)           108.0253         estimate D2E/DX2                !
 ! A82   A(43,41,44)           111.5626         estimate D2E/DX2                !
 ! A83   A(41,44,45)           106.5979         estimate D2E/DX2                !
 ! D1    D(2,1,3,4)           -169.1242         estimate D2E/DX2                !
 ! D2    D(7,1,3,4)             72.5294         estimate D2E/DX2                !
 ! D3    D(8,1,3,4)            -47.5035         estimate D2E/DX2                !
 ! D4    D(2,1,7,5)             56.652          estimate D2E/DX2                !
 ! D5    D(3,1,7,5)            173.0896         estimate D2E/DX2                !
 ! D6    D(8,1,7,5)            -63.4967         estimate D2E/DX2                !
 ! D7    D(2,1,8,9)            178.8153         estimate D2E/DX2                !
 ! D8    D(2,1,8,10)            57.9855         estimate D2E/DX2                !
 ! D9    D(2,1,8,12)           -63.8151         estimate D2E/DX2                !
 ! D10   D(3,1,8,9)             59.1644         estimate D2E/DX2                !
 ! D11   D(3,1,8,10)           -61.6653         estimate D2E/DX2                !
 ! D12   D(3,1,8,12)           176.5341         estimate D2E/DX2                !
 ! D13   D(7,1,8,9)            -61.3436         estimate D2E/DX2                !
 ! D14   D(7,1,8,10)           177.8267         estimate D2E/DX2                !
 ! D15   D(7,1,8,12)            56.0261         estimate D2E/DX2                !
 ! D16   D(6,5,7,1)            -53.6737         estimate D2E/DX2                !
 ! D17   D(16,5,7,1)            65.2053         estimate D2E/DX2                !
 ! D18   D(19,5,7,1)          -170.6158         estimate D2E/DX2                !
 ! D19   D(6,5,16,12)           61.3917         estimate D2E/DX2                !
 ! D20   D(6,5,16,17)         -177.8571         estimate D2E/DX2                !
 ! D21   D(6,5,16,18)          -55.284          estimate D2E/DX2                !
 ! D22   D(7,5,16,12)          -57.9293         estimate D2E/DX2                !
 ! D23   D(7,5,16,17)           62.822          estimate D2E/DX2                !
 ! D24   D(7,5,16,18)         -174.605          estimate D2E/DX2                !
 ! D25   D(19,5,16,12)        -176.6706         estimate D2E/DX2                !
 ! D26   D(19,5,16,17)         -55.9194         estimate D2E/DX2                !
 ! D27   D(19,5,16,18)          66.6536         estimate D2E/DX2                !
 ! D28   D(6,5,19,20)           57.9998         estimate D2E/DX2                !
 ! D29   D(6,5,19,21)          176.9622         estimate D2E/DX2                !
 ! D30   D(6,5,19,22)          -60.1727         estimate D2E/DX2                !
 ! D31   D(7,5,19,20)          175.6042         estimate D2E/DX2                !
 ! D32   D(7,5,19,21)          -65.4335         estimate D2E/DX2                !
 ! D33   D(7,5,19,22)           57.4316         estimate D2E/DX2                !
 ! D34   D(16,5,19,20)         -64.0904         estimate D2E/DX2                !
 ! D35   D(16,5,19,21)          54.8719         estimate D2E/DX2                !
 ! D36   D(16,5,19,22)         177.737          estimate D2E/DX2                !
 ! D37   D(1,8,10,11)         -170.7908         estimate D2E/DX2                !
 ! D38   D(9,8,10,11)           70.7108         estimate D2E/DX2                !
 ! D39   D(12,8,10,11)         -49.4078         estimate D2E/DX2                !
 ! D40   D(1,8,12,13)           64.8125         estimate D2E/DX2                !
 ! D41   D(1,8,12,14)         -176.0364         estimate D2E/DX2                !
 ! D42   D(1,8,12,16)          -54.341          estimate D2E/DX2                !
 ! D43   D(9,8,12,13)         -178.0467         estimate D2E/DX2                !
 ! D44   D(9,8,12,14)          -58.8956         estimate D2E/DX2                !
 ! D45   D(9,8,12,16)           62.7998         estimate D2E/DX2                !
 ! D46   D(10,8,12,13)         -55.9238         estimate D2E/DX2                !
 ! D47   D(10,8,12,14)          63.2273         estimate D2E/DX2                !
 ! D48   D(10,8,12,16)        -175.0773         estimate D2E/DX2                !
 ! D49   D(8,12,14,15)         170.6982         estimate D2E/DX2                !
 ! D50   D(13,12,14,15)        -71.353          estimate D2E/DX2                !
 ! D51   D(16,12,14,15)         49.2412         estimate D2E/DX2                !
 ! D52   D(8,12,16,5)           54.4197         estimate D2E/DX2                !
 ! D53   D(8,12,16,17)         -66.9589         estimate D2E/DX2                !
 ! D54   D(8,12,16,18)         173.423          estimate D2E/DX2                !
 ! D55   D(13,12,16,5)         -64.8482         estimate D2E/DX2                !
 ! D56   D(13,12,16,17)        173.7732         estimate D2E/DX2                !
 ! D57   D(13,12,16,18)         54.155          estimate D2E/DX2                !
 ! D58   D(14,12,16,5)         173.3713         estimate D2E/DX2                !
 ! D59   D(14,12,16,17)         51.9927         estimate D2E/DX2                !
 ! D60   D(14,12,16,18)        -67.6255         estimate D2E/DX2                !
 ! D61   D(5,16,18,24)        -104.4315         estimate D2E/DX2                !
 ! D62   D(12,16,18,24)        137.9303         estimate D2E/DX2                !
 ! D63   D(17,16,18,24)         18.5338         estimate D2E/DX2                !
 ! D64   D(16,18,24,25)         52.6393         estimate D2E/DX2                !
 ! D65   D(16,18,24,28)        -66.6268         estimate D2E/DX2                !
 ! D66   D(16,18,24,29)        173.4206         estimate D2E/DX2                !
 ! D67   D(5,19,22,23)         -50.0917         estimate D2E/DX2                !
 ! D68   D(20,19,22,23)       -169.7558         estimate D2E/DX2                !
 ! D69   D(21,19,22,23)         71.1305         estimate D2E/DX2                !
 ! D70   D(18,24,28,26)        178.423          estimate D2E/DX2                !
 ! D71   D(25,24,28,26)         57.9622         estimate D2E/DX2                !
 ! D72   D(29,24,28,26)        -62.8893         estimate D2E/DX2                !
 ! D73   D(18,24,29,30)         56.8513         estimate D2E/DX2                !
 ! D74   D(18,24,29,31)        -66.3415         estimate D2E/DX2                !
 ! D75   D(18,24,29,33)        175.764          estimate D2E/DX2                !
 ! D76   D(25,24,29,30)        178.3827         estimate D2E/DX2                !
 ! D77   D(25,24,29,31)         55.1899         estimate D2E/DX2                !
 ! D78   D(25,24,29,33)        -62.7046         estimate D2E/DX2                !
 ! D79   D(28,24,29,30)        -61.158          estimate D2E/DX2                !
 ! D80   D(28,24,29,31)        175.6492         estimate D2E/DX2                !
 ! D81   D(28,24,29,33)         57.7547         estimate D2E/DX2                !
 ! D82   D(27,26,28,24)        -58.7165         estimate D2E/DX2                !
 ! D83   D(37,26,28,24)         61.1186         estimate D2E/DX2                !
 ! D84   D(41,26,28,24)       -176.5273         estimate D2E/DX2                !
 ! D85   D(27,26,37,33)         63.9406         estimate D2E/DX2                !
 ! D86   D(27,26,37,38)       -177.8593         estimate D2E/DX2                !
 ! D87   D(27,26,37,39)        -57.2274         estimate D2E/DX2                !
 ! D88   D(28,26,37,33)        -55.8035         estimate D2E/DX2                !
 ! D89   D(28,26,37,38)         62.3966         estimate D2E/DX2                !
 ! D90   D(28,26,37,39)       -176.9715         estimate D2E/DX2                !
 ! D91   D(41,26,37,33)       -173.7541         estimate D2E/DX2                !
 ! D92   D(41,26,37,38)        -55.554          estimate D2E/DX2                !
 ! D93   D(41,26,37,39)         65.0779         estimate D2E/DX2                !
 ! D94   D(27,26,41,42)         57.6636         estimate D2E/DX2                !
 ! D95   D(27,26,41,43)        175.8222         estimate D2E/DX2                !
 ! D96   D(27,26,41,44)        -61.2346         estimate D2E/DX2                !
 ! D97   D(28,26,41,42)        175.4757         estimate D2E/DX2                !
 ! D98   D(28,26,41,43)        -66.3657         estimate D2E/DX2                !
 ! D99   D(28,26,41,44)         56.5775         estimate D2E/DX2                !
 ! D100  D(37,26,41,42)        -64.725          estimate D2E/DX2                !
 ! D101  D(37,26,41,43)         53.4336         estimate D2E/DX2                !
 ! D102  D(37,26,41,44)        176.3767         estimate D2E/DX2                !
 ! D103  D(24,29,31,32)         64.1029         estimate D2E/DX2                !
 ! D104  D(30,29,31,32)        -57.183          estimate D2E/DX2                !
 ! D105  D(33,29,31,32)       -177.3164         estimate D2E/DX2                !
 ! D106  D(24,29,33,34)         64.1402         estimate D2E/DX2                !
 ! D107  D(24,29,33,35)       -173.9634         estimate D2E/DX2                !
 ! D108  D(24,29,33,37)        -54.4587         estimate D2E/DX2                !
 ! D109  D(30,29,33,34)       -177.7497         estimate D2E/DX2                !
 ! D110  D(30,29,33,35)        -55.8533         estimate D2E/DX2                !
 ! D111  D(30,29,33,37)         63.6514         estimate D2E/DX2                !
 ! D112  D(31,29,33,34)        -56.3287         estimate D2E/DX2                !
 ! D113  D(31,29,33,35)         65.5676         estimate D2E/DX2                !
 ! D114  D(31,29,33,37)       -174.9277         estimate D2E/DX2                !
 ! D115  D(29,33,35,36)        -57.0411         estimate D2E/DX2                !
 ! D116  D(34,33,35,36)         63.7221         estimate D2E/DX2                !
 ! D117  D(37,33,35,36)       -178.5071         estimate D2E/DX2                !
 ! D118  D(29,33,37,26)         54.4608         estimate D2E/DX2                !
 ! D119  D(29,33,37,38)        -64.2074         estimate D2E/DX2                !
 ! D120  D(29,33,37,39)        173.8095         estimate D2E/DX2                !
 ! D121  D(34,33,37,26)        -64.1492         estimate D2E/DX2                !
 ! D122  D(34,33,37,38)        177.1825         estimate D2E/DX2                !
 ! D123  D(34,33,37,39)         55.1995         estimate D2E/DX2                !
 ! D124  D(35,33,37,26)        176.7938         estimate D2E/DX2                !
 ! D125  D(35,33,37,38)         58.1256         estimate D2E/DX2                !
 ! D126  D(35,33,37,39)        -63.8575         estimate D2E/DX2                !
 ! D127  D(26,37,39,40)        170.806          estimate D2E/DX2                !
 ! D128  D(33,37,39,40)         50.2644         estimate D2E/DX2                !
 ! D129  D(38,37,39,40)        -69.9624         estimate D2E/DX2                !
 ! D130  D(26,41,44,45)        -58.4192         estimate D2E/DX2                !
 ! D131  D(42,41,44,45)       -177.9971         estimate D2E/DX2                !
 ! D132  D(43,41,44,45)         62.8104         estimate D2E/DX2                !
 --------------------------------------------------------------------------------
 Trust Radius=3.00D-01 FncErr=1.00D-07 GrdErr=1.00D-06 EigMax=2.50D+02 EigMin=1.00D-04
 Number of steps in this run=    270 maximum allowed number of steps=    270.
 GradGradGradGradGradGradGradGradGradGradGradGradGradGradGradGradGradGrad

 Leave Link  103 at Thu Mar 16 17:56:15 2023, MaxMem=   262144000 cpu:               0.1 elap:               0.0
 (Enter /dragofs/sw/campus/0.2/software/gaussian/16.gaussian/gaussian/g16_legacy/l202.exe)
                          Input orientation:                          
 ---------------------------------------------------------------------
 Center     Atomic      Atomic             Coordinates (Angstroms)
 Number     Number       Type             X           Y           Z
 ---------------------------------------------------------------------
      1          6           0       -4.110797    0.057005    0.005097
      2          1           0       -4.373047    0.689072    0.862342
      3          8           0       -5.285360   -0.230093   -0.649813
      4          1           0       -5.111713   -0.917388   -1.300676
      5          6           0       -2.075047    1.262660   -0.263436
      6          1           0       -2.340424    1.852406    0.627190
      7          8           0       -3.257501    0.776181   -0.880156
      8          6           0       -3.359109   -1.184655    0.475126
      9          1           0       -3.137187   -1.796160   -0.415471
     10          8           0       -4.160043   -1.885976    1.388564
     11          1           0       -3.604272   -2.573238    1.771232
     12          6           0       -2.037319   -0.786654    1.110283
     13          1           0       -2.245994   -0.205258    2.020298
     14          8           0       -1.361800   -1.985703    1.433911
     15          1           0       -0.466066   -1.748896    1.699385
     16          6           0       -1.218692    0.073399    0.169843
     17          1           0       -0.902826   -0.517302   -0.696153
     18          8           0       -0.078408    0.521005    0.906187
     19          6           0       -1.422756    2.185461   -1.276580
     20          1           0       -0.542576    2.657537   -0.834096
     21          1           0       -1.106166    1.591030   -2.146203
     22          8           0       -2.307423    3.212048   -1.645617
     23          1           0       -3.136410    2.780276   -1.879273
     24          6           0        1.115123    0.484218    0.196413
     25          1           0        1.018970    1.015753   -0.764874
     26          6           0        2.617607   -1.042460   -0.814472
     27          1           0        2.516476   -0.520477   -1.776408
     28          8           0        1.421041   -0.869331   -0.053889
     29          6           0        2.200075    1.133155    1.034308
     30          1           0        2.256395    0.605577    1.995435
     31          8           0        1.958903    2.511906    1.210758
     32          1           0        1.144162    2.608501    1.713170
     33          6           0        3.520533    0.996097    0.300040
     34          1           0        3.455187    1.565020   -0.639545
     35          8           0        4.605881    1.454483    1.075767
     36          1           0        4.424788    2.369501    1.313331
     37          6           0        3.794054   -0.459467   -0.040469
     38          1           0        3.909128   -1.014883    0.902507
     39          8           0        4.943704   -0.581190   -0.842334
     40          1           0        5.641685   -0.081374   -0.405701
     41          6           0        2.744919   -2.532914   -1.062551
     42          1           0        3.601890   -2.715658   -1.709868
     43          1           0        2.920425   -3.034921   -0.101204
     44          8           0        1.597858   -3.034550   -1.706367
     45          1           0        0.851199   -2.834433   -1.133118
 ---------------------------------------------------------------------
                    Distance matrix (angstroms):
                    1          2          3          4          5
     1  C    0.000000
     2  H    1.096883   0.000000
     3  O    1.375111   1.990927   0.000000
     4  H    1.912150   2.793741   0.962367   0.000000
     5  C    2.381175   2.622438   3.561419   3.879409   0.000000
     6  H    2.597053   2.353763   3.826250   4.366746   1.100654
     7  O    1.424430   2.070828   2.275491   2.546196   1.419578
     8  C    1.525674   2.165377   2.426339   2.509288   2.860706
     9  H    2.135185   3.055574   2.668732   2.335504   3.241548
    10  O    2.385704   2.636883   2.857143   3.012615   4.121920
    11  H    3.208423   3.472717   3.765348   3.801426   4.603533
    12  C    2.496499   2.773962   3.735970   3.909183   2.467431
    13  H    2.758135   2.581674   4.045721   4.443911   2.720192
    14  O    3.710950   4.068012   4.776860   4.762469   3.733841
    15  H    4.406354   4.680687   5.572350   5.592299   3.938395
    16  C    2.896840   3.287638   4.159535   4.277815   1.528207
    17  H    3.333565   3.990824   4.392179   4.270860   2.174767
    18  O    4.157814   4.298150   5.486131   5.680966   2.429946
    19  C    3.660408   3.939338   4.598635   4.820442   1.517731
    20  H    4.494353   4.628743   5.555751   5.820206   2.149372
    21  H    4.001141   4.531819   4.798055   4.801196   2.142748
    22  O    3.991405   4.113644   4.659192   5.003526   2.400945
    23  H    3.452026   3.663176   3.897676   4.231940   2.457759
    24  C    5.246842   5.532218   6.495577   6.555857   3.315813
    25  H    5.275089   5.641666   6.427282   6.450534   3.144097
    26  C    6.866727   7.394535   7.946316   7.745607   5.257207
    27  H    6.886798   7.476064   7.888104   7.653308   5.152742
    28  O    5.609172   6.069560   6.763103   6.650839   4.100235
    29  C    6.484171   6.590350   7.792717   7.944754   4.469629
    30  H    6.693542   6.726096   8.035779   8.214182   4.929061
    31  O    6.657433   6.598311   7.966155   8.249907   4.472876
    32  H    6.086234   5.903195   7.414854   7.787884   4.010183
    33  C    7.694549   7.919536   8.941449   8.985510   5.630193
    34  H    7.741691   8.018990   8.922987   8.943781   5.551249
    35  O    8.892680   9.014020  10.180966  10.281288   6.816528
    36  H    8.939537   8.968229  10.242011  10.420246   6.779318
    37  C    7.921836   8.296731   9.102729   9.006137   6.120603
    38  H    8.140853   8.455738   9.357575   9.286501   6.508224
    39  O    9.116437   9.556220  10.236898  10.071470   7.279957
    40  H    9.762111  10.124049  10.930783  10.822914   7.834196
    41  C    7.405970   8.046853   8.364133   8.024543   6.186844
    42  H    8.373429   9.044781   9.288970   8.906632   7.081440
    43  H    7.681757   8.245682   8.689243   8.392730   6.591681
    44  O    6.713834   7.491017   7.507328   7.047361   5.834235
    45  H    5.854686   6.609818   6.683826   6.265737   5.109348
                    6          7          8          9         10
     6  H    0.000000
     7  O    2.066732   0.000000
     8  C    3.206958   2.385789   0.000000
     9  H    3.877371   2.616743   1.102883   0.000000
    10  O    4.226843   3.612306   1.402753   2.075775   0.000000
    11  H    4.742623   4.285874   1.915244   2.367211   0.963143
    12  C    2.699979   2.809474   1.519526   2.134652   2.406638
    13  H    2.486694   3.224748   2.141448   3.042723   2.624402
    14  O    4.042225   4.071436   2.355884   2.570630   2.800387
    15  H    4.199071   4.563130   3.191689   3.407306   3.709564
    16  C    2.152281   2.398571   2.501456   2.741982   3.738446
    17  H    3.071391   2.692852   2.801889   2.589716   4.102289
    18  O    2.639542   3.655512   3.722645   4.058591   4.762981
    19  C    2.139481   2.347235   4.263287   4.419738   5.583219
    20  H    2.452723   3.303398   4.940583   5.171332   6.218504
    21  H    3.046870   2.625852   4.433006   4.312022   5.823256
    22  O    2.648654   2.724340   4.993455   5.223401   6.215167
    23  H    2.788708   2.242609   4.616651   4.804840   5.787961
    24  C    3.741432   4.512658   4.783468   4.863812   5.904779
    25  H    3.731402   4.284727   5.054401   5.030167   6.315022
    26  C    5.919519   6.150501   6.115915   5.817639   7.176449
    27  H    5.915855   5.985265   6.327167   5.953438   7.513823
    28  O    4.692583   5.027841   4.819660   4.665533   5.853438
    29  C    4.615105   5.794630   6.048922   6.258523   7.049238
    30  H    4.955545   6.221027   6.086884   6.377424   6.909906
    31  O    4.388588   5.881797   6.518203   6.868347   7.537538
    32  H    3.727381   5.427465   6.016663   6.500931   6.959905
    33  C    5.932209   6.883529   7.219128   7.254922   8.275414
    34  H    5.939387   6.763161   7.432216   7.403184   8.603158
    35  O    6.972139   8.131329   8.412306   8.529102   9.386050
    36  H    6.819551   8.146632   8.597887   8.804826   9.581966
    37  C    6.589563   7.208074   7.208292   7.068909   8.206383
    38  H    6.881428   7.599103   7.282770   7.210965   8.130595
    39  O    7.819233   8.312861   8.428320   8.182858   9.463487
    40  H    8.277707   8.952989   9.110838   8.944785  10.126690
    41  C    6.924375   6.856561   6.437500   5.963278   7.355610
    42  H    7.851124   7.741615   7.454775   6.923590   8.398587
    43  H    7.217552   7.300550   6.571772   6.190958   7.326152
    44  O    6.696110   6.227263   5.722984   5.061687   6.637111
    45  H    5.937306   5.475577   4.799470   4.183330   5.689552
                   11         12         13         14         15
    11  H    0.000000
    12  C    2.466592   0.000000
    13  H    2.741219   1.099861   0.000000
    14  O    2.342576   1.413782   2.072591   0.000000
    15  H    3.245464   1.934370   2.377803   0.963791   0.000000
    16  C    3.906421   1.514684   2.134756   2.420382   2.495336
    17  H    4.196745   2.150078   3.046404   2.627552   2.728770
    18  O    4.770153   2.364098   2.543055   2.865165   2.435548
    19  C    6.057507   3.861123   4.154836   4.974845   5.025016
    20  H    6.597175   4.228158   4.386889   5.232080   5.083407
    21  H    6.239227   4.138252   4.678204   5.067108   5.133554
    22  O    6.842968   4.863904   5.012054   6.115089   6.260240
    23  H    6.496552   4.782095   4.991283   6.069677   6.360104
    24  C    5.839587   3.519682   3.885748   3.710399   3.121839
    25  H    6.378641   4.013202   4.461843   4.417178   3.990136
    26  C    6.909481   5.043655   5.691348   4.666970   4.040739
    27  H    7.366351   5.398230   6.098808   5.243478   4.741910
    28  O    5.611429   3.649984   4.265019   3.347244   2.721907
    29  C    6.926099   4.652628   4.746689   4.751201   3.982066
    30  H    6.671023   4.599759   4.574886   4.485686   3.611507
    31  O    7.557892   5.182700   5.071439   5.595119   4.926831
    32  H    7.028614   4.691734   4.416415   5.240662   4.645421
    33  C    8.103543   5.892742   6.136398   5.832150   5.038465
    34  H    8.530708   6.225744   6.535451   6.333263   5.641707
    35  O    9.171304   7.011133   7.113021   6.897562   6.031184
    36  H    9.439605   7.194537   7.185299   7.243407   6.405520
    37  C    7.904778   5.952831   6.386984   5.575484   4.778948
    38  H    7.722327   5.954451   6.307969   5.385867   4.507340
    39  O    9.157886   7.251869   7.747757   6.849331   6.090114
    40  H    9.820191   7.858927   8.253260   7.487285   6.672079
    41  C    6.952998   5.535380   6.311193   4.837035   4.307366
    42  H    8.004193   6.593556   7.376584   5.920676   5.394988
    43  H    6.803737   5.576884   6.260962   4.668499   4.045281
    44  O    6.274445   5.118698   6.055421   4.440833   4.184714
    45  H    5.324913   4.191633   5.142878   3.493901   3.307061
                   16         17         18         19         20
    16  C    0.000000
    17  H    1.094828   0.000000
    18  O    1.429266   2.079721   0.000000
    19  C    2.567993   2.812855   3.056494   0.000000
    20  H    2.853558   3.198189   2.794424   1.092412   0.000000
    21  H    2.771270   2.566916   3.393866   1.099919   1.782329
    22  O    3.785809   4.096636   4.326884   1.404530   2.020083
    23  H    3.899192   4.154839   4.713223   1.911453   2.799185
    24  C    2.369846   2.423187   1.389118   3.391868   2.921169
    25  H    2.601703   2.459325   2.059480   2.755374   2.266864
    26  C    4.114755   3.561354   3.559998   5.192066   4.865914
    27  H    4.253476   3.585887   3.874845   4.805151   4.510601
    28  O    2.811936   2.436552   2.259010   4.349012   4.111364
    29  C    3.682167   3.917461   2.362758   4.424077   3.651960
    30  H    3.961342   4.299556   2.577774   5.170906   4.477837
    31  O    4.138470   4.582783   2.864801   4.210586   3.234197
    32  H    3.793637   4.445857   2.550204   3.963160   3.055496
    33  C    4.829967   4.780050   3.680422   5.323197   4.533818
    34  H    4.972443   4.830274   3.995691   4.958335   4.148922
    35  O    6.054233   6.113386   4.779404   6.512475   5.621523
    36  H    6.199074   6.383974   4.884821   6.398069   5.419328
    37  C    5.045374   4.742779   4.105295   5.978187   5.399252
    38  H    5.292985   5.094919   4.273103   6.589356   6.026618
    39  O    6.279181   5.848706   5.430817   6.955195   6.370925
    40  H    6.886217   6.565441   5.899438   7.470160   6.777185
    41  C    4.901212   4.183657   4.601470   6.299078   6.148219
    42  H    5.877939   5.113986   5.555567   7.032480   6.842134
    43  H    5.183378   4.616234   4.759459   6.891815   6.703252
    44  O    4.594830   3.689240   4.719881   6.046267   6.143466
    45  H    3.799690   2.938816   4.035083   5.512784   5.673954
                   21         22         23         24         25
    21  H    0.000000
    22  O    2.078775   0.000000
    23  H    2.368005   0.963453   0.000000
    24  C    3.412771   4.748468   5.258887   0.000000
    25  H    2.599080   4.082194   4.650012   1.102655   0.000000
    26  C    4.751343   6.561064   6.989694   2.368563   2.606596
    27  H    4.209364   6.100725   6.546806   2.620157   2.371862
    28  O    4.100967   5.752625   6.117354   1.410082   2.054435
    29  C    4.610480   5.641040   6.299209   1.516677   2.155423
    30  H    5.425044   6.393699   6.987491   2.133942   3.052666
    31  O    4.638087   5.181758   5.965109   2.419169   2.650485
    32  H    4.581919   4.853778   5.590926   2.610359   2.948427
    33  C    5.267295   6.531546   7.228249   2.461454   2.718868
    34  H    4.803815   6.077216   6.816372   2.709771   2.500511
    35  O    6.559513   7.634706   8.392441   3.728280   4.055413
    36  H    6.570072   7.401886   8.217857   3.969343   4.213213
    37  C    5.714089   7.299626   7.868193   2.850145   3.225233
    38  H    6.421728   7.937593   8.472375   3.248436   3.905977
    39  O    6.558928   8.222698   8.812658   4.107569   4.237896
    40  H    7.166573   8.693235   9.349621   4.601326   4.764681
    41  C    5.745613   7.672725   7.967876   3.652987   3.957341
    42  H    6.395603   8.370293   8.697050   4.478518   4.635506
    43  H    6.464896   8.290973   8.582732   3.966362   4.523710
    44  O    5.375983   7.367150   7.500359   4.029309   4.198390
    45  H    4.943920   6.841015   6.926957   3.584795   3.871393
                   26         27         28         29         30
    26  C    0.000000
    27  H    1.099097   0.000000
    28  O    1.428366   2.070929   0.000000
    29  C    2.885415   3.276390   2.408530   0.000000
    30  H    3.277511   3.944926   2.659492   1.097850   0.000000
    31  O    4.143545   4.292947   3.649848   1.410763   2.082861
    32  H    4.678625   4.883739   3.910815   1.937125   2.308341
    33  C    2.492614   2.760392   2.830716   1.517084   2.150562
    34  H    2.744283   2.554003   3.225958   2.136258   3.049714
    35  O    3.709577   4.049813   4.101151   2.427524   2.662051
    36  H    4.408506   4.641133   4.624048   2.560421   2.877259
    37  C    1.524136   2.156250   2.408186   2.496469   2.764710
    38  H    2.148675   3.059494   2.669542   2.748145   2.559670
    39  O    2.371555   2.601464   3.621302   3.740089   4.084480
    40  H    3.199348   3.440724   4.307956   3.923441   4.206845
    41  C    1.516313   2.147482   2.353202   4.258372   4.409088
    42  H    2.137788   2.449770   3.302619   4.930411   5.154632
    43  H    2.137838   3.048264   2.634420   4.379629   4.253241
    44  O    2.409105   2.677560   2.729491   5.024314   5.233310
    45  H    2.536316   2.922561   2.313240   4.717940   4.857581
                   31         32         33         34         35
    31  O    0.000000
    32  H    0.962056   0.000000
    33  C    2.359189   3.200613   0.000000
    34  H    2.561070   3.459040   1.100347   0.000000
    35  O    2.853569   3.704260   1.410621   2.068480   0.000000
    36  H    2.472122   3.313533   1.931495   2.324014   0.962543
    37  C    3.709772   4.416968   1.519680   2.138287   2.359714
    38  H    4.041861   4.629376   2.134950   3.039718   2.571624
    39  O    4.763556   5.580434   2.412109   2.619737   2.817304
    40  H    4.785491   5.652677   2.481592   2.747011   2.372023
    41  C    5.588914   6.058151   3.861625   4.180488   4.892333
    42  H    6.209419   6.790014   4.221786   4.414897   5.114473
    43  H    5.780403   6.188318   4.095147   4.662107   4.937689
    44  O    6.277193   6.613857   4.895760   5.073837   6.077819
    45  H    5.941726   6.149204   4.883876   5.136103   6.113232
                   36         37         38         39         40
    36  H    0.000000
    37  C    3.199009   0.000000
    38  H    3.448005   1.100424   0.000000
    39  O    3.690900   1.406947   2.074345   0.000000
    40  H    3.231516   1.920960   2.363176   0.963142   0.000000
    41  C    5.700916   2.538606   2.742490   2.948284   3.851331
    42  H    5.972917   2.813222   3.132337   2.666277   3.577858
    43  H    5.785481   2.720272   2.462828   3.265536   4.027582
    44  O    6.805430   3.772207   4.028306   4.237949   5.173540
    45  H    6.770272   3.936336   4.099446   4.680839   5.572901
                   41         42         43         44         45
    41  C    0.000000
    42  H    1.089410   0.000000
    43  H    1.098636   1.775985   0.000000
    44  O    1.407795   2.029248   2.079839   0.000000
    45  H    1.918872   2.813014   2.320935   0.962373   0.000000
 Stoichiometry    C12H22O11
 Framework group  C1[X(C12H22O11)]
 Deg. of freedom   129
 Full point group                 C1      NOp   1
 Largest Abelian subgroup         C1      NOp   1
 Largest concise Abelian subgroup C1      NOp   1
                         Standard orientation:                         
 ---------------------------------------------------------------------
 Center     Atomic      Atomic             Coordinates (Angstroms)
 Number     Number       Type             X           Y           Z
 ---------------------------------------------------------------------
      1          6           0        4.110797    0.057005   -0.005097
      2          1           0        4.373047    0.689072   -0.862342
      3          8           0        5.285360   -0.230093    0.649813
      4          1           0        5.111713   -0.917388    1.300676
      5          6           0        2.075047    1.262660    0.263436
      6          1           0        2.340424    1.852406   -0.627190
      7          8           0        3.257501    0.776181    0.880156
      8          6           0        3.359109   -1.184655   -0.475126
      9          1           0        3.137187   -1.796160    0.415471
     10          8           0        4.160043   -1.885976   -1.388564
     11          1           0        3.604272   -2.573238   -1.771232
     12          6           0        2.037319   -0.786654   -1.110283
     13          1           0        2.245994   -0.205258   -2.020298
     14          8           0        1.361800   -1.985703   -1.433911
     15          1           0        0.466066   -1.748896   -1.699385
     16          6           0        1.218692    0.073399   -0.169843
     17          1           0        0.902826   -0.517302    0.696153
     18          8           0        0.078408    0.521005   -0.906187
     19          6           0        1.422756    2.185461    1.276580
     20          1           0        0.542576    2.657537    0.834096
     21          1           0        1.106166    1.591030    2.146203
     22          8           0        2.307423    3.212048    1.645617
     23          1           0        3.136410    2.780276    1.879273
     24          6           0       -1.115123    0.484218   -0.196413
     25          1           0       -1.018970    1.015753    0.764874
     26          6           0       -2.617607   -1.042460    0.814472
     27          1           0       -2.516476   -0.520477    1.776408
     28          8           0       -1.421041   -0.869331    0.053889
     29          6           0       -2.200075    1.133155   -1.034308
     30          1           0       -2.256395    0.605577   -1.995435
     31          8           0       -1.958903    2.511906   -1.210758
     32          1           0       -1.144162    2.608501   -1.713170
     33          6           0       -3.520533    0.996097   -0.300040
     34          1           0       -3.455187    1.565020    0.639545
     35          8           0       -4.605881    1.454483   -1.075767
     36          1           0       -4.424788    2.369501   -1.313331
     37          6           0       -3.794054   -0.459467    0.040469
     38          1           0       -3.909128   -1.014883   -0.902507
     39          8           0       -4.943704   -0.581190    0.842334
     40          1           0       -5.641685   -0.081374    0.405701
     41          6           0       -2.744919   -2.532914    1.062551
     42          1           0       -3.601890   -2.715658    1.709868
     43          1           0       -2.920425   -3.034921    0.101204
     44          8           0       -1.597858   -3.034550    1.706367
     45          1           0       -0.851199   -2.834433    1.133118
 ---------------------------------------------------------------------
 Rotational constants (GHZ):           0.4026732           0.1450902           0.1254035
 Leave Link  202 at Thu Mar 16 17:56:15 2023, MaxMem=   262144000 cpu:               0.0 elap:               0.0
 (Enter /dragofs/sw/campus/0.2/software/gaussian/16.gaussian/gaussian/g16_legacy/l301.exe)
 Standard basis: 6-311G(d,p) (5D, 7F)
 Ernie: Thresh=  0.10000D-02 Tol=  0.10000D-05 Strict=F.
 There are   569 symmetry adapted cartesian basis functions of A   symmetry.
 There are   546 symmetry adapted basis functions of A   symmetry.
   546 basis functions,   912 primitive gaussians,   569 cartesian basis functions
    91 alpha electrons       91 beta electrons
       nuclear repulsion energy      2310.1218082793 Hartrees.
 IExCor= 4336 DFT=T Ex+Corr=M062X ExCW=0 ScaHFX=  0.540000
 ScaDFX=  1.000000  1.000000  1.000000  1.000000 ScalE2=  1.000000  1.000000
 IRadAn=      5 IRanWt=     -1 IRanGd=            0 ICorTp=0 IEmpDi=  4
 NAtoms=   45 NActive=   45 NUniq=   45 SFac= 1.00D+00 NAtFMM=   60 NAOKFM=F Big=F
 Integral buffers will be    131072 words long.
 Raffenetti 2 integral format.
 Two-electron integral symmetry is turned on.
 Leave Link  301 at Thu Mar 16 17:56:15 2023, MaxMem=   262144000 cpu:               0.4 elap:               0.1
 (Enter /dragofs/sw/campus/0.2/software/gaussian/16.gaussian/gaussian/g16_legacy/l302.exe)
 NPDir=0 NMtPBC=     1 NCelOv=     1 NCel=       1 NClECP=     1 NCelD=      1
         NCelK=      1 NCelE2=     1 NClLst=     1 CellRange=     0.0.
 One-electron integrals computed using PRISM.
 One-electron integral symmetry used in STVInt
 NBasis=   546 RedAO= T EigKep=  6.97D-04  NBF=   546
 NBsUse=   546 1.00D-06 EigRej= -1.00D+00 NBFU=   546
 Precomputing XC quadrature grid using
 IXCGrd= 4 IRadAn=           5 IRanWt=          -1 IRanGd=           0 AccXCQ= 0.00D+00.
 Generated NRdTot=       0 NPtTot=           0 NUsed=           0 NTot=          32
 NSgBfM=   558   558   558   558   558 MxSgAt=    45 MxSgA2=    45.
 Leave Link  302 at Thu Mar 16 17:56:16 2023, MaxMem=   262144000 cpu:               6.2 elap:               0.8
 (Enter /dragofs/sw/campus/0.2/software/gaussian/16.gaussian/gaussian/g16_legacy/l303.exe)
 DipDrv:  MaxL=1.
 Leave Link  303 at Thu Mar 16 17:56:16 2023, MaxMem=   262144000 cpu:               0.5 elap:               0.1
 (Enter /dragofs/sw/campus/0.2/software/gaussian/16.gaussian/gaussian/g16_legacy/l401.exe)
 ExpMin= 1.03D-01 ExpMax= 8.59D+03 ExpMxC= 1.30D+03 IAcc=3 IRadAn=         5 AccDes= 0.00D+00
 Harris functional with IExCor= 1009 and IRadAn=       5 diagonalized for initial guess.
 HarFok:  IExCor= 1009 AccDes= 0.00D+00 IRadAn=         5 IDoV= 1 UseB2=F ITyADJ=14
 ICtDFT=  3500011 ScaDFX=  1.000000  1.000000  1.000000  1.000000
 FoFCou: FMM=F IPFlag=           0 FMFlag=      100000 FMFlg1=           0
         NFxFlg=           0 DoJE=T BraDBF=F KetDBF=T FulRan=T
         wScrn=  0.000000 ICntrl=       500 IOpCl=  0 I1Cent=   200000004 NGrid=           0
         NMat0=    1 NMatS0=      1 NMatT0=    0 NMatD0=    1 NMtDS0=    0 NMtDT0=    0
 Petite list used in FoFCou.
 Harris En= -1297.12210489408    
 JPrj=0 DoOrth=F DoCkMO=F.
 Leave Link  401 at Thu Mar 16 17:56:20 2023, MaxMem=   262144000 cpu:              37.2 elap:               4.7
 (Enter /dragofs/sw/campus/0.2/software/gaussian/16.gaussian/gaussian/g16_legacy/l502.exe)
 Integral symmetry usage will be decided dynamically.
 Closed shell SCF:
 Using DIIS extrapolation, IDIIS=  1040.
 NGot=   262144000 LenX=   261486196 LenY=   261161866
 Requested convergence on RMS density matrix=1.00D-08 within 128 cycles.
 Requested convergence on MAX density matrix=1.00D-06.
 Requested convergence on             energy=1.00D-06.
 No special actions if energy rises.
 Fock matrices will be formed incrementally for  20 cycles.
 Integral accuracy reduced to 1.0D-05 until final iterations.

 Cycle   1  Pass 0  IDiag  1:
 FoFJK:  IHMeth= 1 ICntrl=       0 DoSepK=F KAlg= 0 I1Cent=           0 FoldK=F
 IRaf= 740000000 NMat=       1 IRICut=       1 DoRegI=T DoRafI=F ISym2E= 0 IDoP0=0 IntGTp=1.
 FoFCou: FMM=F IPFlag=           0 FMFlag=      100000 FMFlg1=           0
         NFxFlg=           0 DoJE=F BraDBF=F KetDBF=F FulRan=T
         wScrn=  0.000000 ICntrl=         0 IOpCl=  0 I1Cent=           0 NGrid=           0
         NMat0=    1 NMatS0=      1 NMatT0=    0 NMatD0=    1 NMtDS0=    0 NMtDT0=    0
 Symmetry not used in FoFCou.
 E= -1297.33418128830    
 DIIS: error= 1.76D-02 at cycle   1 NSaved=   1.
 NSaved= 1 IEnMin= 1 EnMin= -1297.33418128830     IErMin= 1 ErrMin= 1.76D-02
 ErrMax= 1.76D-02  0.00D+00 EMaxC= 1.00D-01 BMatC= 8.55D-01 BMatP= 8.55D-01
 IDIUse=3 WtCom= 8.24D-01 WtEn= 1.76D-01
 Coeff-Com:  0.100D+01
 Coeff-En:   0.100D+01
 Coeff:      0.100D+01
 Gap=     0.419 Goal=   None    Shift=    0.000
 GapD=    0.419 DampG=2.000 DampE=0.500 DampFc=1.0000 IDamp=-1.
 RMSDP=2.61D-03 MaxDP=1.95D-01              OVMax= 1.09D-01

 Cycle   2  Pass 0  IDiag  1:
 RMSU=  2.59D-03    CP:  1.03D+00
 E= -1297.42171922005     Delta-E=       -0.087537931748 Rises=F Damp=F
 DIIS: error= 1.80D-02 at cycle   2 NSaved=   2.
 NSaved= 2 IEnMin= 2 EnMin= -1297.42171922005     IErMin= 1 ErrMin= 1.76D-02
 ErrMax= 1.80D-02  0.00D+00 EMaxC= 1.00D-01 BMatC= 6.08D-01 BMatP= 8.55D-01
 IDIUse=3 WtCom= 8.20D-01 WtEn= 1.80D-01
 Coeff-Com:  0.453D+00 0.547D+00
 Coeff-En:   0.445D+00 0.555D+00
 Coeff:      0.452D+00 0.548D+00
 Gap=     0.409 Goal=   None    Shift=    0.000
 RMSDP=1.46D-03 MaxDP=9.84D-02 DE=-8.75D-02 OVMax= 5.70D-02

 Cycle   3  Pass 0  IDiag  1:
 RMSU=  4.58D-04    CP:  1.01D+00  4.67D-01
 E= -1297.81201191880     Delta-E=       -0.390292698747 Rises=F Damp=F
 DIIS: error= 3.84D-03 at cycle   3 NSaved=   3.
 NSaved= 3 IEnMin= 3 EnMin= -1297.81201191880     IErMin= 3 ErrMin= 3.84D-03
 ErrMax= 3.84D-03  0.00D+00 EMaxC= 1.00D-01 BMatC= 2.26D-02 BMatP= 6.08D-01
 IDIUse=3 WtCom= 9.62D-01 WtEn= 3.84D-02
 Coeff-Com:  0.661D-01 0.188D+00 0.746D+00
 Coeff-En:   0.000D+00 0.000D+00 0.100D+01
 Coeff:      0.636D-01 0.180D+00 0.756D+00
 Gap=     0.393 Goal=   None    Shift=    0.000
 RMSDP=2.71D-04 MaxDP=1.11D-02 DE=-3.90D-01 OVMax= 1.27D-02

 Cycle   4  Pass 0  IDiag  1:
 RMSU=  1.88D-04    CP:  1.02D+00  5.21D-01  7.07D-01
 E= -1297.82508508894     Delta-E=       -0.013073170146 Rises=F Damp=F
 DIIS: error= 1.15D-03 at cycle   4 NSaved=   4.
 NSaved= 4 IEnMin= 4 EnMin= -1297.82508508894     IErMin= 4 ErrMin= 1.15D-03
 ErrMax= 1.15D-03  0.00D+00 EMaxC= 1.00D-01 BMatC= 2.71D-03 BMatP= 2.26D-02
 IDIUse=3 WtCom= 9.89D-01 WtEn= 1.15D-02
 Coeff-Com:  0.283D-02 0.474D-01 0.345D+00 0.604D+00
 Coeff-En:   0.000D+00 0.000D+00 0.480D-01 0.952D+00
 Coeff:      0.280D-02 0.468D-01 0.342D+00 0.608D+00
 Gap=     0.385 Goal=   None    Shift=    0.000
 RMSDP=1.01D-04 MaxDP=3.64D-03 DE=-1.31D-02 OVMax= 4.76D-03

 Cycle   5  Pass 0  IDiag  1:
 RMSU=  3.58D-05    CP:  1.01D+00  5.14D-01  8.06D-01  5.75D-01
 E= -1297.82745810373     Delta-E=       -0.002373014787 Rises=F Damp=F
 DIIS: error= 1.21D-04 at cycle   5 NSaved=   5.
 NSaved= 5 IEnMin= 5 EnMin= -1297.82745810373     IErMin= 5 ErrMin= 1.21D-04
 ErrMax= 1.21D-04  0.00D+00 EMaxC= 1.00D-01 BMatC= 3.72D-05 BMatP= 2.71D-03
 IDIUse=3 WtCom= 9.99D-01 WtEn= 1.21D-03
 Coeff-Com: -0.193D-02 0.535D-02 0.572D-01 0.162D+00 0.778D+00
 Coeff-En:   0.000D+00 0.000D+00 0.000D+00 0.000D+00 0.100D+01
 Coeff:     -0.193D-02 0.534D-02 0.572D-01 0.162D+00 0.778D+00
 Gap=     0.384 Goal=   None    Shift=    0.000
 RMSDP=1.41D-05 MaxDP=5.82D-04 DE=-2.37D-03 OVMax= 6.37D-04

 Cycle   6  Pass 0  IDiag  1:
 RMSU=  9.86D-06    CP:  1.01D+00  5.15D-01  8.07D-01  6.18D-01  8.46D-01
 E= -1297.82748370664     Delta-E=       -0.000025602912 Rises=F Damp=F
 DIIS: error= 5.95D-05 at cycle   6 NSaved=   6.
 NSaved= 6 IEnMin= 6 EnMin= -1297.82748370664     IErMin= 6 ErrMin= 5.95D-05
 ErrMax= 5.95D-05  0.00D+00 EMaxC= 1.00D-01 BMatC= 5.35D-06 BMatP= 3.72D-05
 IDIUse=1 WtCom= 1.00D+00 WtEn= 0.00D+00
 Coeff-Com: -0.998D-03 0.158D-03 0.906D-02 0.447D-01 0.339D+00 0.608D+00
 Coeff:     -0.998D-03 0.158D-03 0.906D-02 0.447D-01 0.339D+00 0.608D+00
 Gap=     0.384 Goal=   None    Shift=    0.000
 RMSDP=4.35D-06 MaxDP=2.80D-04 DE=-2.56D-05 OVMax= 2.42D-04

 Initial convergence to 1.0D-05 achieved.  Increase integral accuracy.
 Cycle   7  Pass 1  IDiag  1:
 E= -1297.82742258866     Delta-E=        0.000061117979 Rises=F Damp=F
 DIIS: error= 5.03D-05 at cycle   1 NSaved=   1.
 NSaved= 1 IEnMin= 1 EnMin= -1297.82742258866     IErMin= 1 ErrMin= 5.03D-05
 ErrMax= 5.03D-05  0.00D+00 EMaxC= 1.00D-01 BMatC= 1.26D-06 BMatP= 1.26D-06
 IDIUse=1 WtCom= 1.00D+00 WtEn= 0.00D+00
 Coeff-Com:  0.100D+01
 Coeff:      0.100D+01
 Gap=     0.385 Goal=   None    Shift=    0.000
 RMSDP=4.35D-06 MaxDP=2.80D-04 DE= 6.11D-05 OVMax= 1.54D-04

 Cycle   8  Pass 1  IDiag  1:
 RMSU=  1.70D-05    CP:  1.00D+00
 E= -1297.82742329518     Delta-E=       -0.000000706517 Rises=F Damp=F
 DIIS: error= 2.68D-05 at cycle   2 NSaved=   2.
 NSaved= 2 IEnMin= 2 EnMin= -1297.82742329518     IErMin= 2 ErrMin= 2.68D-05
 ErrMax= 2.68D-05  0.00D+00 EMaxC= 1.00D-01 BMatC= 7.06D-07 BMatP= 1.26D-06
 IDIUse=1 WtCom= 1.00D+00 WtEn= 0.00D+00
 Coeff-Com:  0.406D+00 0.594D+00
 Coeff:      0.406D+00 0.594D+00
 Gap=     0.384 Goal=   None    Shift=    0.000
 RMSDP=1.64D-06 MaxDP=1.07D-04 DE=-7.07D-07 OVMax= 1.09D-04

 Cycle   9  Pass 1  IDiag  1:
 RMSU=  1.64D-06    CP:  1.00D+00  1.01D+00
 E= -1297.82742369018     Delta-E=       -0.000000395001 Rises=F Damp=F
 DIIS: error= 1.04D-05 at cycle   3 NSaved=   3.
 NSaved= 3 IEnMin= 3 EnMin= -1297.82742369018     IErMin= 3 ErrMin= 1.04D-05
 ErrMax= 1.04D-05  0.00D+00 EMaxC= 1.00D-01 BMatC= 1.12D-07 BMatP= 7.06D-07
 IDIUse=1 WtCom= 1.00D+00 WtEn= 0.00D+00
 Coeff-Com: -0.223D-01 0.277D+00 0.745D+00
 Coeff:     -0.223D-01 0.277D+00 0.745D+00
 Gap=     0.385 Goal=   None    Shift=    0.000
 RMSDP=5.96D-07 MaxDP=3.13D-05 DE=-3.95D-07 OVMax= 3.33D-05

 Cycle  10  Pass 1  IDiag  1:
 RMSU=  2.58D-07    CP:  1.00D+00  1.03D+00  7.30D-01
 E= -1297.82742376620     Delta-E=       -0.000000076022 Rises=F Damp=F
 DIIS: error= 8.78D-07 at cycle   4 NSaved=   4.
 NSaved= 4 IEnMin= 4 EnMin= -1297.82742376620     IErMin= 4 ErrMin= 8.78D-07
 ErrMax= 8.78D-07  0.00D+00 EMaxC= 1.00D-01 BMatC= 1.21D-09 BMatP= 1.12D-07
 IDIUse=1 WtCom= 1.00D+00 WtEn= 0.00D+00
 Coeff-Com: -0.123D-01 0.858D-01 0.254D+00 0.672D+00
 Coeff:     -0.123D-01 0.858D-01 0.254D+00 0.672D+00
 Gap=     0.385 Goal=   None    Shift=    0.000
 RMSDP=8.20D-08 MaxDP=3.99D-06 DE=-7.60D-08 OVMax= 4.68D-06

 Cycle  11  Pass 1  IDiag  1:
 RMSU=  7.83D-08    CP:  1.00D+00  1.03D+00  7.42D-01  9.55D-01
 E= -1297.82742376722     Delta-E=       -0.000000001022 Rises=F Damp=F
 DIIS: error= 2.85D-07 at cycle   5 NSaved=   5.
 NSaved= 5 IEnMin= 5 EnMin= -1297.82742376722     IErMin= 5 ErrMin= 2.85D-07
 ErrMax= 2.85D-07  0.00D+00 EMaxC= 1.00D-01 BMatC= 1.84D-10 BMatP= 1.21D-09
 IDIUse=1 WtCom= 1.00D+00 WtEn= 0.00D+00
 Coeff-Com: -0.111D-02-0.108D-01-0.202D-01 0.250D+00 0.782D+00
 Coeff:     -0.111D-02-0.108D-01-0.202D-01 0.250D+00 0.782D+00
 Gap=     0.385 Goal=   None    Shift=    0.000
 RMSDP=2.87D-08 MaxDP=1.32D-06 DE=-1.02D-09 OVMax= 1.81D-06

 Cycle  12  Pass 1  IDiag  1:
 RMSU=  1.95D-08    CP:  1.00D+00  1.03D+00  7.43D-01  1.04D+00  9.62D-01
 E= -1297.82742376745     Delta-E=       -0.000000000228 Rises=F Damp=F
 DIIS: error= 1.08D-07 at cycle   6 NSaved=   6.
 NSaved= 6 IEnMin= 6 EnMin= -1297.82742376745     IErMin= 6 ErrMin= 1.08D-07
 ErrMax= 1.08D-07  0.00D+00 EMaxC= 1.00D-01 BMatC= 1.80D-11 BMatP= 1.84D-10
 IDIUse=1 WtCom= 1.00D+00 WtEn= 0.00D+00
 Coeff-Com:  0.851D-03-0.130D-01-0.346D-01 0.309D-01 0.301D+00 0.715D+00
 Coeff:      0.851D-03-0.130D-01-0.346D-01 0.309D-01 0.301D+00 0.715D+00
 Gap=     0.385 Goal=   None    Shift=    0.000
 RMSDP=9.56D-09 MaxDP=4.42D-07 DE=-2.28D-10 OVMax= 6.82D-07

 SCF Done:  E(RM062X) =  -1297.82742377     A.U. after   12 cycles
            NFock= 12  Conv=0.96D-08     -V/T= 2.0029
 KE= 1.294117381499D+03 PE=-7.667224060338D+03 EE= 2.765157446792D+03
 Leave Link  502 at Thu Mar 16 17:59:08 2023, MaxMem=   262144000 cpu:            1335.0 elap:             167.6
 (Enter /dragofs/sw/campus/0.2/software/gaussian/16.gaussian/gaussian/g16_legacy/l601.exe)
 Copying SCF densities to generalized density rwf, IOpCl= 0 IROHF=0.

 **********************************************************************

            Population analysis using the SCF density.

 **********************************************************************

 Orbital symmetries:
       Occupied  (A) (A) (A) (A) (A) (A) (A) (A) (A) (A) (A) (A)
                 (A) (A) (A) (A) (A) (A) (A) (A) (A) (A) (A) (A)
                 (A) (A) (A) (A) (A) (A) (A) (A) (A) (A) (A) (A)
                 (A) (A) (A) (A) (A) (A) (A) (A) (A) (A) (A) (A)
                 (A) (A) (A) (A) (A) (A) (A) (A) (A) (A) (A) (A)
                 (A) (A) (A) (A) (A) (A) (A) (A) (A) (A) (A) (A)
                 (A) (A) (A) (A) (A) (A) (A) (A) (A) (A) (A) (A)
                 (A) (A) (A) (A) (A) (A) (A)
       Virtual   (A) (A) (A) (A) (A) (A) (A) (A) (A) (A) (A) (A)
                 (A) (A) (A) (A) (A) (A) (A) (A) (A) (A) (A) (A)
                 (A) (A) (A) (A) (A) (A) (A) (A) (A) (A) (A) (A)
                 (A) (A) (A) (A) (A) (A) (A) (A) (A) (A) (A) (A)
                 (A) (A) (A) (A) (A) (A) (A) (A) (A) (A) (A) (A)
                 (A) (A) (A) (A) (A) (A) (A) (A) (A) (A) (A) (A)
                 (A) (A) (A) (A) (A) (A) (A) (A) (A) (A) (A) (A)
                 (A) (A) (A) (A) (A) (A) (A) (A) (A) (A) (A) (A)
                 (A) (A) (A) (A) (A) (A) (A) (A) (A) (A) (A) (A)
                 (A) (A) (A) (A) (A) (A) (A) (A) (A) (A) (A) (A)
                 (A) (A) (A) (A) (A) (A) (A) (A) (A) (A) (A) (A)
                 (A) (A) (A) (A) (A) (A) (A) (A) (A) (A) (A) (A)
                 (A) (A) (A) (A) (A) (A) (A) (A) (A) (A) (A) (A)
                 (A) (A) (A) (A) (A) (A) (A) (A) (A) (A) (A) (A)
                 (A) (A) (A) (A) (A) (A) (A) (A) (A) (A) (A) (A)
                 (A) (A) (A) (A) (A) (A) (A) (A) (A) (A) (A) (A)
                 (A) (A) (A) (A) (A) (A) (A) (A) (A) (A) (A) (A)
                 (A) (A) (A) (A) (A) (A) (A) (A) (A) (A) (A) (A)
                 (A) (A) (A) (A) (A) (A) (A) (A) (A) (A) (A) (A)
                 (A) (A) (A) (A) (A) (A) (A) (A) (A) (A) (A) (A)
                 (A) (A) (A) (A) (A) (A) (A) (A) (A) (A) (A) (A)
                 (A) (A) (A) (A) (A) (A) (A) (A) (A) (A) (A) (A)
                 (A) (A) (A) (A) (A) (A) (A) (A) (A) (A) (A) (A)
                 (A) (A) (A) (A) (A) (A) (A) (A) (A) (A) (A) (A)
                 (A) (A) (A) (A) (A) (A) (A) (A) (A) (A) (A) (A)
                 (A) (A) (A) (A) (A) (A) (A) (A) (A) (A) (A) (A)
                 (A) (A) (A) (A) (A) (A) (A) (A) (A) (A) (A) (A)
                 (A) (A) (A) (A) (A) (A) (A) (A) (A) (A) (A) (A)
                 (A) (A) (A) (A) (A) (A) (A) (A) (A) (A) (A) (A)
                 (A) (A) (A) (A) (A) (A) (A) (A) (A) (A) (A) (A)
                 (A) (A) (A) (A) (A) (A) (A) (A) (A) (A) (A) (A)
                 (A) (A) (A) (A) (A) (A) (A) (A) (A) (A) (A) (A)
                 (A) (A) (A) (A) (A) (A) (A) (A) (A) (A) (A) (A)
                 (A) (A) (A) (A) (A) (A) (A) (A) (A) (A) (A) (A)
                 (A) (A) (A) (A) (A) (A) (A) (A) (A) (A) (A) (A)
                 (A) (A) (A) (A) (A) (A) (A) (A) (A) (A) (A) (A)
                 (A) (A) (A) (A) (A) (A) (A) (A) (A) (A) (A) (A)
                 (A) (A) (A) (A) (A) (A) (A) (A) (A) (A) (A)
 The electronic state is 1-A.
 Alpha  occ. eigenvalues --  -19.67311 -19.66269 -19.65100 -19.64925 -19.64063
 Alpha  occ. eigenvalues --  -19.63980 -19.63624 -19.63234 -19.62726 -19.61697
 Alpha  occ. eigenvalues --  -19.61640 -10.67128 -10.65543 -10.61877 -10.61638
 Alpha  occ. eigenvalues --  -10.61139 -10.61139 -10.61094 -10.61071 -10.60894
 Alpha  occ. eigenvalues --  -10.60634 -10.59653 -10.59077  -1.24719  -1.22123
 Alpha  occ. eigenvalues --   -1.19224  -1.18662  -1.17864  -1.17099  -1.16135
 Alpha  occ. eigenvalues --   -1.15536  -1.15175  -1.14602  -1.14067  -0.92847
 Alpha  occ. eigenvalues --   -0.91024  -0.88744  -0.88102  -0.81280  -0.78929
 Alpha  occ. eigenvalues --   -0.76371  -0.73670  -0.72702  -0.72237  -0.70771
 Alpha  occ. eigenvalues --   -0.69827  -0.65758  -0.65093  -0.63743  -0.63178
 Alpha  occ. eigenvalues --   -0.62573  -0.61378  -0.59666  -0.59222  -0.58958
 Alpha  occ. eigenvalues --   -0.58258  -0.56954  -0.56252  -0.55907  -0.55541
 Alpha  occ. eigenvalues --   -0.54525  -0.53451  -0.52871  -0.51537  -0.50928
 Alpha  occ. eigenvalues --   -0.50779  -0.50157  -0.48994  -0.47866  -0.47535
 Alpha  occ. eigenvalues --   -0.46415  -0.45994  -0.45701  -0.44975  -0.44043
 Alpha  occ. eigenvalues --   -0.43667  -0.43240  -0.42643  -0.42494  -0.40726
 Alpha  occ. eigenvalues --   -0.39710  -0.39362  -0.38231  -0.37875  -0.37596
 Alpha  occ. eigenvalues --   -0.36488  -0.36262  -0.35905  -0.35327  -0.35252
 Alpha  occ. eigenvalues --   -0.34415
 Alpha virt. eigenvalues --    0.04036   0.04953   0.05523   0.06350   0.07281
 Alpha virt. eigenvalues --    0.07761   0.08199   0.09047   0.09956   0.10496
 Alpha virt. eigenvalues --    0.11111   0.11383   0.11922   0.12188   0.13414
 Alpha virt. eigenvalues --    0.14290   0.14833   0.15169   0.15497   0.16529
 Alpha virt. eigenvalues --    0.16643   0.16912   0.17361   0.18443   0.19657
 Alpha virt. eigenvalues --    0.19971   0.21100   0.22227   0.22485   0.23626
 Alpha virt. eigenvalues --    0.24021   0.24517   0.25716   0.26961   0.27223
 Alpha virt. eigenvalues --    0.28176   0.29111   0.29981   0.31064   0.31962
 Alpha virt. eigenvalues --    0.32417   0.33008   0.33611   0.34918   0.35900
 Alpha virt. eigenvalues --    0.36643   0.38765   0.39386   0.40169   0.40659
 Alpha virt. eigenvalues --    0.41270   0.41532   0.42761   0.42902   0.44017
 Alpha virt. eigenvalues --    0.44320   0.45264   0.45517   0.46660   0.47695
 Alpha virt. eigenvalues --    0.47733   0.48378   0.49329   0.49968   0.50556
 Alpha virt. eigenvalues --    0.51215   0.52300   0.53003   0.53216   0.53506
 Alpha virt. eigenvalues --    0.54606   0.54792   0.55073   0.55543   0.56231
 Alpha virt. eigenvalues --    0.56601   0.57218   0.57887   0.58687   0.58869
 Alpha virt. eigenvalues --    0.59822   0.60638   0.61494   0.61925   0.62499
 Alpha virt. eigenvalues --    0.62720   0.62861   0.63626   0.63810   0.64071
 Alpha virt. eigenvalues --    0.64531   0.64706   0.65335   0.66570   0.67195
 Alpha virt. eigenvalues --    0.67391   0.68034   0.68666   0.69276   0.69840
 Alpha virt. eigenvalues --    0.70849   0.72267   0.75260   0.76829   0.78676
 Alpha virt. eigenvalues --    0.79696   0.83725   0.84147   0.84925   0.86702
 Alpha virt. eigenvalues --    0.87275   0.88765   0.88827   0.90366   0.91096
 Alpha virt. eigenvalues --    0.91463   0.92647   0.92929   0.93552   0.94342
 Alpha virt. eigenvalues --    0.95733   0.95972   0.97063   0.97520   0.98013
 Alpha virt. eigenvalues --    0.99056   0.99519   1.01225   1.01752   1.02515
 Alpha virt. eigenvalues --    1.02826   1.04051   1.05091   1.06526   1.07263
 Alpha virt. eigenvalues --    1.08624   1.09472   1.09615   1.11243   1.11397
 Alpha virt. eigenvalues --    1.11843   1.13228   1.13524   1.14843   1.15505
 Alpha virt. eigenvalues --    1.16757   1.17411   1.18391   1.20266   1.21092
 Alpha virt. eigenvalues --    1.22148   1.23711   1.24889   1.25460   1.26625
 Alpha virt. eigenvalues --    1.27668   1.29360   1.31390   1.32755   1.33871
 Alpha virt. eigenvalues --    1.35781   1.37379   1.38818   1.40099   1.41301
 Alpha virt. eigenvalues --    1.42027   1.43055   1.43366   1.43831   1.44528
 Alpha virt. eigenvalues --    1.46065   1.47490   1.48266   1.48926   1.50023
 Alpha virt. eigenvalues --    1.50307   1.50995   1.51479   1.51865   1.52169
 Alpha virt. eigenvalues --    1.52567   1.52934   1.53778   1.54743   1.55341
 Alpha virt. eigenvalues --    1.55967   1.56314   1.56992   1.57785   1.58439
 Alpha virt. eigenvalues --    1.59097   1.59611   1.60078   1.60551   1.61272
 Alpha virt. eigenvalues --    1.62289   1.62549   1.62913   1.64738   1.65323
 Alpha virt. eigenvalues --    1.65726   1.65892   1.67431   1.68656   1.69172
 Alpha virt. eigenvalues --    1.70298   1.71278   1.71865   1.73173   1.73626
 Alpha virt. eigenvalues --    1.73960   1.75430   1.76734   1.77461   1.78468
 Alpha virt. eigenvalues --    1.78699   1.79603   1.80439   1.81266   1.82069
 Alpha virt. eigenvalues --    1.82602   1.84161   1.84839   1.86264   1.87578
 Alpha virt. eigenvalues --    1.88099   1.89546   1.90090   1.90841   1.92026
 Alpha virt. eigenvalues --    1.93357   1.94101   1.95779   1.96055   1.96726
 Alpha virt. eigenvalues --    1.97841   1.99370   2.00236   2.02530   2.03273
 Alpha virt. eigenvalues --    2.03541   2.04476   2.05740   2.06619   2.07268
 Alpha virt. eigenvalues --    2.07804   2.08006   2.09370   2.10148   2.11347
 Alpha virt. eigenvalues --    2.12189   2.13415   2.14071   2.15113   2.15233
 Alpha virt. eigenvalues --    2.16114   2.16903   2.17975   2.18464   2.19304
 Alpha virt. eigenvalues --    2.19751   2.21757   2.22826   2.24042   2.25387
 Alpha virt. eigenvalues --    2.25605   2.28606   2.29697   2.31917   2.32232
 Alpha virt. eigenvalues --    2.33941   2.34993   2.40367   2.41054   2.43737
 Alpha virt. eigenvalues --    2.44151   2.46010   2.46338   2.48668   2.49739
 Alpha virt. eigenvalues --    2.50437   2.51934   2.53137   2.54098   2.54448
 Alpha virt. eigenvalues --    2.54871   2.56133   2.57804   2.58116   2.58765
 Alpha virt. eigenvalues --    2.59728   2.61780   2.62734   2.62908   2.63741
 Alpha virt. eigenvalues --    2.66222   2.73991   2.75617   2.76532   2.77878
 Alpha virt. eigenvalues --    2.78929   2.80848   2.81586   2.82647   2.84236
 Alpha virt. eigenvalues --    2.84753   2.85287   2.86300   2.89764   2.91626
 Alpha virt. eigenvalues --    2.92676   2.94918   2.96191   2.97133   2.97872
 Alpha virt. eigenvalues --    2.99064   3.00116   3.00418   3.01613   3.02236
 Alpha virt. eigenvalues --    3.04465   3.04962   3.06695   3.07634   3.09795
 Alpha virt. eigenvalues --    3.11646   3.12796   3.12965   3.15024   3.16469
 Alpha virt. eigenvalues --    3.17156   3.18360   3.19061   3.19935   3.20414
 Alpha virt. eigenvalues --    3.20514   3.20781   3.21489   3.21804   3.22134
 Alpha virt. eigenvalues --    3.23315   3.24248   3.25488   3.26636   3.29099
 Alpha virt. eigenvalues --    3.30770   3.31459   3.32268   3.33437   3.34671
 Alpha virt. eigenvalues --    3.35500   3.36024   3.37314   3.38376   3.38995
 Alpha virt. eigenvalues --    3.40286   3.41446   3.43837   3.44499   3.46307
 Alpha virt. eigenvalues --    3.48124   3.52839   3.54746   3.56068   3.57030
[...]
    31  O   -0.001094   0.007432  -0.000108   0.000001   0.000000  -0.048740
    32  H    0.000537   0.001429  -0.000065  -0.000044   0.000002  -0.005351
    33  C   -0.000008   0.000030  -0.000000  -0.000000  -0.000000  -0.061076
    34  H   -0.000021   0.000097  -0.000004   0.000000  -0.000000  -0.001224
    35  O    0.000000  -0.000001   0.000000  -0.000000  -0.000000   0.006851
    36  H    0.000001  -0.000013   0.000000  -0.000000  -0.000000   0.001797
    37  C    0.000001  -0.000001  -0.000001  -0.000000   0.000000   0.003834
    38  H    0.000000   0.000001   0.000000   0.000000  -0.000000   0.000323
    39  O    0.000000   0.000000   0.000000   0.000000  -0.000000  -0.000514
    40  H    0.000000  -0.000000  -0.000000   0.000000   0.000000  -0.000348
    41  C    0.000000   0.000001   0.000000   0.000000  -0.000000   0.005045
    42  H    0.000000  -0.000000   0.000000  -0.000000   0.000000  -0.000120
    43  H    0.000000   0.000000   0.000000  -0.000000  -0.000000  -0.001041
    44  O   -0.000000   0.000000  -0.000000  -0.000000   0.000000  -0.000812
    45  H   -0.000001  -0.000001  -0.000009   0.000000   0.000000  -0.000825
              25         26         27         28         29         30
     1  C   -0.000041  -0.000000   0.000000   0.000010   0.000001  -0.000001
     2  H   -0.000012   0.000000   0.000000   0.000000  -0.000000  -0.000000
     3  O   -0.000000  -0.000000  -0.000000  -0.000000   0.000000  -0.000000
     4  H   -0.000000   0.000000  -0.000000   0.000000   0.000000  -0.000000
     5  C    0.000397   0.000060  -0.000025   0.000186   0.000005   0.000063
     6  H   -0.000064  -0.000003  -0.000000   0.000003   0.000082   0.000003
     7  O   -0.000111  -0.000000   0.000000   0.000000  -0.000001  -0.000000
     8  C    0.000170  -0.000000  -0.000003  -0.000156  -0.000003   0.000011
     9  H   -0.000020  -0.000003   0.000005  -0.000070  -0.000005   0.000001
    10  O   -0.000001   0.000000   0.000000  -0.000000  -0.000000  -0.000000
    11  H   -0.000002   0.000000   0.000000   0.000012   0.000001  -0.000001
    12  C    0.001727   0.000221   0.000076  -0.003609  -0.000998   0.000229
    13  H    0.000076   0.000023   0.000003  -0.000263  -0.000127   0.000079
    14  O   -0.000051   0.000082  -0.000092  -0.011878  -0.000179   0.000005
    15  H    0.002273  -0.006101   0.000704   0.020951  -0.000009   0.000577
    16  C   -0.017860  -0.000098  -0.000290   0.005598   0.008606  -0.002014
    17  H   -0.000119   0.000136  -0.000049   0.003875   0.000875  -0.000049
    18  O   -0.047212   0.003732  -0.000050  -0.054162  -0.032659   0.002272
    19  C   -0.000917  -0.000008   0.000001   0.000004  -0.000146  -0.000092
    20  H    0.001156   0.000037  -0.000007   0.000185  -0.000907   0.000340
    21  H   -0.000102  -0.000019   0.000005  -0.000037   0.000048  -0.000009
    22  O    0.000012  -0.000000   0.000000  -0.000000   0.000001   0.000000
    23  H    0.000007   0.000000  -0.000000   0.000000  -0.000000  -0.000000
    24  C    0.408445  -0.074462  -0.010022   0.203690   0.182574  -0.049135
    25  H    0.597644   0.002907   0.007051  -0.055370  -0.065492   0.012516
    26  C    0.002907   5.422161   0.387540   0.191297  -0.011049   0.002104
    27  H    0.007051   0.387540   0.547279  -0.038961   0.001976   0.000306
    28  O   -0.055370   0.191297  -0.038961   8.288991  -0.031194   0.002233
    29  C   -0.065492  -0.011049   0.001976  -0.031194   5.285372   0.384163
    30  H    0.012516   0.002104   0.000306   0.002233   0.384163   0.554275
    31  O    0.008309   0.000168  -0.000126   0.001904   0.246923  -0.034884
    32  H   -0.001623  -0.000005   0.000028   0.000079  -0.036184  -0.008561
    33  C   -0.001910  -0.022646  -0.013210  -0.004397   0.213799  -0.046165
    34  H    0.005672  -0.002162   0.005197   0.000557  -0.047368   0.010485
    35  O   -0.000121   0.002869  -0.000078  -0.000066  -0.042522   0.004573
    36  H   -0.000065  -0.000885  -0.000077  -0.000036  -0.011115  -0.001640
    37  C   -0.005087   0.105777  -0.054356  -0.040412  -0.062700  -0.002499
    38  H   -0.000042  -0.045491   0.010337   0.002740   0.001663   0.006338
    39  O   -0.000081  -0.046634   0.008085   0.001500   0.006694   0.000014
    40  H   -0.000023   0.011119  -0.000700  -0.000261   0.001622  -0.000065
    41  C    0.000918   0.299004  -0.030720  -0.042371  -0.001434  -0.000066
    42  H    0.000092  -0.041601  -0.007168   0.004372   0.000001   0.000010
    43  H   -0.000001  -0.057411   0.011958  -0.003460  -0.000000  -0.000011
    44  O   -0.000241  -0.039674   0.008756  -0.003646  -0.000007   0.000001
    45  H   -0.000585  -0.006873  -0.002405   0.009709   0.000055  -0.000045
              31         32         33         34         35         36
     1  C   -0.000000   0.000001  -0.000000  -0.000000  -0.000000   0.000000
     2  H    0.000000   0.000000  -0.000000   0.000000   0.000000  -0.000000
     3  O    0.000000   0.000000  -0.000000  -0.000000   0.000000   0.000000
     4  H   -0.000000  -0.000000   0.000000   0.000000  -0.000000  -0.000000
     5  C    0.000120  -0.000034   0.000016   0.000001   0.000000  -0.000000
     6  H   -0.000016   0.000058   0.000006  -0.000000   0.000000  -0.000000
     7  O   -0.000000   0.000005   0.000000  -0.000000   0.000000   0.000000
     8  C    0.000000  -0.000002   0.000000   0.000000   0.000000  -0.000000
     9  H    0.000000   0.000000   0.000000   0.000000  -0.000000  -0.000000
    10  O    0.000000   0.000000   0.000000  -0.000000  -0.000000   0.000000
    11  H   -0.000000   0.000000  -0.000000  -0.000000   0.000000   0.000000
    12  C    0.000001   0.000047   0.000042   0.000001  -0.000000  -0.000000
    13  H   -0.000001   0.000016   0.000009   0.000000  -0.000000  -0.000000
    14  O    0.000000  -0.000003  -0.000001   0.000001  -0.000000  -0.000000
    15  H    0.000002   0.000007  -0.000228  -0.000013  -0.000000  -0.000000
    16  C   -0.000956  -0.000644  -0.000573  -0.000047   0.000002   0.000003
    17  H   -0.000180   0.000125   0.000108  -0.000050   0.000001  -0.000000
    18  O   -0.001216   0.008645   0.003347  -0.000180  -0.000014  -0.000008
    19  C   -0.001094   0.000537  -0.000008  -0.000021   0.000000   0.000001
    20  H    0.007432   0.001429   0.000030   0.000097  -0.000001  -0.000013
    21  H   -0.000108  -0.000065  -0.000000  -0.000004   0.000000   0.000000
    22  O    0.000001  -0.000044  -0.000000   0.000000  -0.000000  -0.000000
    23  H    0.000000   0.000002  -0.000000  -0.000000  -0.000000  -0.000000
    24  C   -0.048740  -0.005351  -0.061076  -0.001224   0.006851   0.001797
    25  H    0.008309  -0.001623  -0.001910   0.005672  -0.000121  -0.000065
    26  C    0.000168  -0.000005  -0.022646  -0.002162   0.002869  -0.000885
    27  H   -0.000126   0.000028  -0.013210   0.005197  -0.000078  -0.000077
    28  O    0.001904   0.000079  -0.004397   0.000557  -0.000066  -0.000036
    29  C    0.246923  -0.036184   0.213799  -0.047368  -0.042522  -0.011115
    30  H   -0.034884  -0.008561  -0.046165   0.010485   0.004573  -0.001640
    31  O    7.957662   0.321503  -0.045945   0.001850  -0.002036   0.014737
    32  H    0.321503   0.435071   0.009329  -0.000873  -0.000346  -0.000540
    33  C   -0.045945   0.009329   5.298452   0.376703   0.246953  -0.040671
    34  H    0.001850  -0.000873   0.376703   0.567762  -0.036382  -0.005216
    35  O   -0.002036  -0.000346   0.246953  -0.036382   7.963974   0.325002
    36  H    0.014737  -0.000540  -0.040671  -0.005216   0.325002   0.430758
    37  C    0.003908  -0.000637   0.205969  -0.051109  -0.049085   0.012404
    38  H   -0.000225  -0.000029  -0.057313   0.011341   0.003640  -0.000793
    39  O   -0.000016   0.000006  -0.029937   0.006969  -0.003827  -0.000485
    40  H   -0.000021   0.000006  -0.005267  -0.001637   0.016021  -0.000883
    41  C    0.000008  -0.000002   0.006702  -0.000641  -0.000053   0.000022
    42  H    0.000000  -0.000000   0.000245   0.000020  -0.000004   0.000002
    43  H    0.000001   0.000000  -0.000409  -0.000055  -0.000006  -0.000002
    44  O   -0.000000   0.000000  -0.000200  -0.000006   0.000000  -0.000000
    45  H   -0.000001  -0.000000  -0.000021  -0.000006   0.000000   0.000000
              37         38         39         40         41         42
     1  C    0.000000   0.000000  -0.000000   0.000000  -0.000000  -0.000000
     2  H    0.000000   0.000000   0.000000  -0.000000   0.000000   0.000000
     3  O    0.000000  -0.000000  -0.000000  -0.000000   0.000000   0.000000
     4  H    0.000000  -0.000000  -0.000000   0.000000   0.000000   0.000000
     5  C    0.000001  -0.000001  -0.000000   0.000000  -0.000002   0.000000
     6  H   -0.000001  -0.000000   0.000000   0.000000   0.000000  -0.000000
     7  O   -0.000000  -0.000000   0.000000  -0.000000   0.000000  -0.000000
     8  C   -0.000000  -0.000000  -0.000000  -0.000000   0.000004   0.000000
     9  H   -0.000001   0.000000   0.000000  -0.000000   0.000003  -0.000000
    10  O   -0.000000   0.000000   0.000000  -0.000000  -0.000000  -0.000000
    11  H    0.000000   0.000000  -0.000000   0.000000  -0.000004  -0.000000
    12  C   -0.000072   0.000002   0.000000  -0.000000   0.000145  -0.000004
    13  H   -0.000009  -0.000001   0.000000  -0.000000  -0.000009  -0.000001
    14  O   -0.000007  -0.000009   0.000000  -0.000000   0.000055  -0.000006
    15  H    0.000517   0.000064   0.000002   0.000002   0.002379   0.000241
    16  C    0.000400  -0.000003  -0.000001  -0.000000  -0.000207   0.000000
    17  H    0.000212  -0.000010  -0.000001   0.000001  -0.000227  -0.000007
    18  O   -0.000586  -0.000063   0.000000   0.000000  -0.000174   0.000006
    19  C    0.000001   0.000000   0.000000   0.000000   0.000000   0.000000
    20  H   -0.000001   0.000001   0.000000  -0.000000   0.000001  -0.000000
    21  H   -0.000001   0.000000   0.000000  -0.000000   0.000000   0.000000
    22  O   -0.000000   0.000000   0.000000   0.000000   0.000000  -0.000000
    23  H    0.000000  -0.000000  -0.000000   0.000000  -0.000000   0.000000
    24  C    0.003834   0.000323  -0.000514  -0.000348   0.005045  -0.000120
    25  H   -0.005087  -0.000042  -0.000081  -0.000023   0.000918   0.000092
    26  C    0.105777  -0.045491  -0.046634   0.011119   0.299004  -0.041601
    27  H   -0.054356   0.010337   0.008085  -0.000700  -0.030720  -0.007168
    28  O   -0.040412   0.002740   0.001500  -0.000261  -0.042371   0.004372
    29  C   -0.062700   0.001663   0.006694   0.001622  -0.001434   0.000001
    30  H   -0.002499   0.006338   0.000014  -0.000065  -0.000066   0.000010
    31  O    0.003908  -0.000225  -0.000016  -0.000021   0.000008   0.000000
    32  H   -0.000637  -0.000029   0.000006   0.000006  -0.000002  -0.000000
    33  C    0.205969  -0.057313  -0.029937  -0.005267   0.006702   0.000245
    34  H   -0.051109   0.011341   0.006969  -0.001637  -0.000641   0.000020
    35  O   -0.049085   0.003640  -0.003827   0.016021  -0.000053  -0.000004
    36  H    0.012404  -0.000793  -0.000485  -0.000883   0.000022   0.000002
    37  C    5.375100   0.381167   0.220402  -0.046049  -0.048674  -0.002057
    38  H    0.381167   0.572819  -0.033129  -0.004465  -0.010166   0.000007
    39  O    0.220402  -0.033129   7.960581   0.321715  -0.000840   0.011312
    40  H   -0.046049  -0.004465   0.321715   0.435433  -0.000271  -0.000217
    41  C   -0.048674  -0.010166  -0.000840  -0.000271   4.810183   0.403968
    42  H   -0.002057   0.000007   0.011312  -0.000217   0.403968   0.529103
    43  H   -0.001371   0.006519  -0.000343  -0.000125   0.396374  -0.037119
    44  O    0.005742  -0.000002   0.000002   0.000010   0.279287  -0.029630
    45  H    0.000358  -0.000098  -0.000030   0.000002  -0.048476   0.006910
              43         44         45
     1  C   -0.000000  -0.000000   0.000051
     2  H    0.000000  -0.000000   0.000000
     3  O    0.000000   0.000000  -0.000000
     4  H    0.000000   0.000000  -0.000002
     5  C   -0.000001  -0.000000   0.000080
     6  H   -0.000000  -0.000000  -0.000001
     7  O    0.000000  -0.000000  -0.000001
     8  C    0.000000  -0.000005  -0.000324
     9  H    0.000002  -0.000031   0.000430
    10  O   -0.000000   0.000000  -0.000006
    11  H   -0.000000   0.000001   0.000046
    12  C    0.000016   0.000058  -0.003020
    13  H    0.000005  -0.000018   0.000529
    14  O   -0.000177  -0.002279   0.025721
    15  H    0.000274   0.001543  -0.005518
    16  C   -0.000032   0.000029   0.001122
    17  H    0.000031   0.000505   0.001705
    18  O   -0.000013   0.000002  -0.000092
    19  C    0.000000  -0.000000  -0.000001
    20  H    0.000000   0.000000  -0.000001
    21  H    0.000000  -0.000000  -0.000009
    22  O   -0.000000  -0.000000   0.000000
    23  H   -0.000000   0.000000   0.000000
    24  C   -0.001041  -0.000812  -0.000825
    25  H   -0.000001  -0.000241  -0.000585
    26  C   -0.057411  -0.039674  -0.006873
    27  H    0.011958   0.008756  -0.002405
    28  O   -0.003460  -0.003646   0.009709
    29  C   -0.000000  -0.000007   0.000055
    30  H   -0.000011   0.000001  -0.000045
    31  O    0.000001  -0.000000  -0.000001
    32  H    0.000000   0.000000  -0.000000
    33  C   -0.000409  -0.000200  -0.000021
    34  H   -0.000055  -0.000006  -0.000006
    35  O   -0.000006   0.000000   0.000000
    36  H   -0.000002  -0.000000   0.000000
    37  C   -0.001371   0.005742   0.000358
    38  H    0.006519  -0.000002  -0.000098
    39  O   -0.000343   0.000002  -0.000030
    40  H   -0.000125   0.000010   0.000002
    41  C    0.396374   0.279287  -0.048476
    42  H   -0.037119  -0.029630   0.006910
    43  H    0.601619  -0.036474  -0.005920
    44  O   -0.036474   7.900542   0.321050
    45  H   -0.005920   0.321050   0.460406
 Mulliken charges:
               1
     1  C    0.226579
     2  H    0.149305
     3  O   -0.370713
     4  H    0.251592
     5  C   -0.050012
     6  H    0.162370
     7  O   -0.401048
     8  C    0.003233
     9  H    0.138813
    10  O   -0.407449
    11  H    0.270861
    12  C    0.004972
    13  H    0.163830
    14  O   -0.446286
    15  H    0.280603
    16  C   -0.050086
    17  H    0.173616
    18  O   -0.401987
    19  C   -0.003517
    20  H    0.132200
    21  H    0.126815
    22  O   -0.412579
    23  H    0.262037
    24  C    0.239982
    25  H    0.147782
    26  C   -0.074110
    27  H    0.169031
    28  O   -0.447548
    29  C    0.009638
    30  H    0.164639
    31  O   -0.428965
    32  H    0.278049
    33  C   -0.031735
    34  H    0.160333
    35  O   -0.435343
    36  H    0.277704
    37  C    0.048922
    38  H    0.154878
    39  O   -0.421445
    40  H    0.274402
    41  C   -0.019763
    42  H    0.161645
    43  H    0.127172
    44  O   -0.404504
    45  H    0.246086
 Sum of Mulliken charges =  -0.00000
 Mulliken charges with hydrogens summed into heavy atoms:
               1
     1  C    0.375884
     3  O   -0.119121
     5  C    0.112357
     7  O   -0.401048
     8  C    0.142046
    10  O   -0.136588
    12  C    0.168803
    14  O   -0.165683
    16  C    0.123530
    18  O   -0.401987
    19  C    0.255499
    22  O   -0.150542
    24  C    0.387764
    26  C    0.094921
    28  O   -0.447548
    29  C    0.174277
    31  O   -0.150915
    33  C    0.128598
    35  O   -0.157640
    37  C    0.203800
    39  O   -0.147043
    41  C    0.269054
    44  O   -0.158417
 Electronic spatial extent (au):  <R**2>=           8732.8193
 Charge=             -0.0000 electrons
 Dipole moment (field-independent basis, Debye):
    X=             -2.5694    Y=              1.3416    Z=             -0.9800  Tot=              3.0597
 Quadrupole moment (field-independent basis, Debye-Ang):
   XX=           -151.6257   YY=           -150.3717   ZZ=           -134.3311
   XY=             -8.0367   XZ=              8.5610   YZ=             -0.7499
 Traceless Quadrupole moment (field-independent basis, Debye-Ang):
   XX=             -6.1828   YY=             -4.9289   ZZ=             11.1117
   XY=             -8.0367   XZ=              8.5610   YZ=             -0.7499
 Octapole moment (field-independent basis, Debye-Ang**2):
  XXX=           -102.7665  YYY=            -10.1406  ZZZ=             -5.0698  XYY=            -25.6439
  XXY=             20.3555  XXZ=             24.8206  XZZ=             19.6128  YZZ=             10.1086
  YYZ=            -35.5110  XYZ=            -29.8941
 Hexadecapole moment (field-independent basis, Debye-Ang**3):
 XXXX=          -7877.4815 YYYY=          -2916.2102 ZZZZ=           -548.9186 XXXY=            -25.1227
 XXXZ=            213.8725 YYYX=           -241.6237 YYYZ=             -9.7059 ZZZX=             39.7107
 ZZZY=              4.3827 XXYY=          -1712.0768 XXZZ=          -1304.5063 YYZZ=           -547.9076
 XXYZ=            -54.5955 YYXZ=             52.2914 ZZXY=            -30.1582
 N-N= 2.317476005351D+03 E-N=-7.681793923259D+03  KE= 1.294104376249D+03
 No NMR shielding tensors so no spin-rotation constants.
 Leave Link  601 at Thu Mar 16 18:31:49 2023, MaxMem=   262144000 cpu:               1.7 elap:               0.3
 (Enter /dragofs/sw/campus/0.2/software/gaussian/16.gaussian/gaussian/g16_legacy/l9999.exe)
 1\1\GINC-DRAGO31010018\FOpt\RM062X\6-311G(d,p)\C12H22O11\JRAMOS\16-Mar
 -2023\0\\#p opt M062X/6-311g(d,p)\\Optimization 03-DIHEDRAL_PHI_PSI_14
 b/dimer14b_000_001.log\\0,1\C,-4.0794845939,-0.0666072777,0.1051039989
 \H,-4.2739338296,0.3181480163,1.1137642645\O,-5.3036401289,-0.34622124
 89,-0.4555662447\H,-5.1620948076,-0.8524561008,-1.2616371763\C,-2.2339
 312428,1.4226651596,-0.1077736771\H,-2.4304198159,1.8137662053,0.90194
 1677\O,-3.4363492942,0.9340977542,-0.6772190946\C,-3.1514825451,-1.275
 2582121,0.1692020489\H,-2.9868997522,-1.6227830563,-0.8647268556\O,-3.
 7527934782,-2.2718645348,0.9514364508\H,-3.0779159464,-2.9407630102,1.
 1098276889\C,-1.8057257536,-0.873607972,0.7542263281\H,-1.9669185462,-
 0.5483724151,1.7924772162\O,-0.9972901821,-2.0342039206,0.7327534354\H
 ,-0.104500177,-1.7735748179,0.9953830119\C,-1.2090628678,0.2972600335,
 -0.0131950934\H,-0.9216562603,-0.0350057456,-1.0190948722\O,-0.0628304
 911,0.8009082805,0.6788491556\C,-1.7816794432,2.5622383624,-1.00075991
 4\H,-0.8558488529,2.9914565773,-0.6135316863\H,-1.5864662114,2.1577329
 354,-2.0043451998\O,-2.7470679401,3.5823237308,-1.0332017319\H,-3.5819
 435968,3.1552289502,-1.2532859863\C,1.1489423369,0.5478701039,0.059411
 9473\H,1.1184741069,0.8570896244,-0.9991474891\C,2.5904987093,-1.23926
 85361,-0.5488116025\H,2.5395045549,-0.900360247,-1.5927229681\O,1.4022
 133915,-0.8384725009,0.1355264079\C,2.2492389536,1.2936501795,0.793186
 1673\H,2.2331999502,0.9752864238,1.8434035458\O,2.1087682051,2.6920334
 118,0.6712152662\H,1.3190236402,2.9557117247,1.1526850628\C,3.58453008
 01,0.9215065367,0.1702475275\H,3.5931135042,1.2860362934,-0.8681669162
 \O,4.6677140308,1.468494854,0.8889605516\H,4.5334922513,2.4208398754,0
 .9306062908\C,3.7806194936,-0.5879405252,0.1424178979\H,3.8319105543,-
 0.9479879913,1.1807534102\O,4.9436871606,-0.9285687713,-0.5712678649\H
 ,5.658120624,-0.3909747623,-0.2132036249\C,2.5891153361,-2.7539444536,
 -0.5269875063\H,3.4735570527,-3.1187114254,-1.0485652375\H,2.637166782
 4,-3.0913202108,0.5180064936\O,1.455344047,-3.2615244696,-1.1891398619
 \H,0.6707679917,-2.9052428277,-0.756122241\\Version=EM64L-G16RevA.03\S
 tate=1-A\HF=-1297.8329403\RMSD=5.814e-09\RMSF=9.190e-06\Dipole=1.02263
 83,0.484092,0.4110817\Quadrupole=-4.3966207,-4.1900566,8.5866773,6.004
 0986,6.0284281,0.4778305\PG=C01 [X(C12H22O11)]\\@


 MY GROUP MEETINGS AREN'T VERY STRUCTURED.
     -- PROF. M. S. GORDON, OCT. 5, 1984
 Job cpu time:       0 days  4 hours 43 minutes  7.6 seconds.
 Elapsed time:       0 days  0 hours 35 minutes 34.0 seconds.
 File lengths (MBytes):  RWF=    189 Int=      0 D2E=      0 Chk=     24 Scr=      1
 Normal termination of Gaussian 16 at Thu Mar 16 18:31:49 2023.
