 Entering Gaussian System, Link 0=/dragofs/sw/campus/0.2/software/gaussian/16.gaussian/gaussian/g16_legacy/g16
 Input=dimer14b_000_010_opt.com
 Output=dimer14b_000_010_opt.log
 Initial command:
 /dragofs/sw/campus/0.2/software/gaussian/16.gaussian/gaussian/g16_legacy/l1.exe "/tmp/jramos/82106/Gau-1364233.inp" -scrdir="/tmp/jramos/82106/"
 Entering Link 1 = /dragofs/sw/campus/0.2/software/gaussian/16.gaussian/gaussian/g16_legacy/l1.exe PID=   1364234.
  
 Copyright (c) 1988,1990,1992,1993,1995,1998,2003,2009,2016,
            Gaussian, Inc.  All Rights Reserved.
  
 This is part of the Gaussian(R) 16 program.  It is based on
 the Gaussian(R) 09 system (copyright 2009, Gaussian, Inc.),
 the Gaussian(R) 03 system (copyright 2003, Gaussian, Inc.),
 the Gaussian(R) 98 system (copyright 1998, Gaussian, Inc.),
 the Gaussian(R) 94 system (copyright 1995, Gaussian, Inc.),
 the Gaussian 92(TM) system (copyright 1992, Gaussian, Inc.),
 the Gaussian 90(TM) system (copyright 1990, Gaussian, Inc.),
 the Gaussian 88(TM) system (copyright 1988, Gaussian, Inc.),
 the Gaussian 86(TM) system (copyright 1986, Carnegie Mellon
 University), and the Gaussian 82(TM) system (copyright 1983,
 Carnegie Mellon University). Gaussian is a federally registered
 trademark of Gaussian, Inc.
  
 This software contains proprietary and confidential information,
 including trade secrets, belonging to Gaussian, Inc.
  
 This software is provided under written license and may be
 used, copied, transmitted, or stored only in accord with that
 written license.
  
 The following legend is applicable only to US Government
 contracts under FAR:
  
                    RESTRICTED RIGHTS LEGEND
  
 Use, reproduction and disclosure by the US Government is
 subject to restrictions as set forth in subparagraphs (a)
 and (c) of the Commercial Computer Software - Restricted
 Rights clause in FAR 52.227-19.
  
 Gaussian, Inc.
 340 Quinnipiac St., Bldg. 40, Wallingford CT 06492
  
  
 ---------------------------------------------------------------
 Warning -- This program may not be used in any manner that
 competes with the business of Gaussian, Inc. or will provide
 assistance to any competitor of Gaussian, Inc.  The licensee
 of this program is prohibited from giving any competitor of
 Gaussian, Inc. access to this program.  By using this program,
 the user acknowledges that Gaussian, Inc. is engaged in the
 business of creating and licensing software in the field of
 computational chemistry and represents and warrants to the
 licensee that it is not a competitor of Gaussian, Inc. and that
 it will not use this program in any manner prohibited above.
 ---------------------------------------------------------------
  

 Cite this work as:
 Gaussian 16, Revision A.03,
 M. J. Frisch, G. W. Trucks, H. B. Schlegel, G. E. Scuseria, 
 M. A. Robb, J. R. Cheeseman, G. Scalmani, V. Barone, 
 G. A. Petersson, H. Nakatsuji, X. Li, M. Caricato, A. V. Marenich, 
 J. Bloino, B. G. Janesko, R. Gomperts, B. Mennucci, H. P. Hratchian, 
 J. V. Ortiz, A. F. Izmaylov, J. L. Sonnenberg, D. Williams-Young, 
 F. Ding, F. Lipparini, F. Egidi, J. Goings, B. Peng, A. Petrone, 
 T. Henderson, D. Ranasinghe, V. G. Zakrzewski, J. Gao, N. Rega, 
 G. Zheng, W. Liang, M. Hada, M. Ehara, K. Toyota, R. Fukuda, 
 J. Hasegawa, M. Ishida, T. Nakajima, Y. Honda, O. Kitao, H. Nakai, 
 T. Vreven, K. Throssell, J. A. Montgomery, Jr., J. E. Peralta, 
 F. Ogliaro, M. J. Bearpark, J. J. Heyd, E. N. Brothers, K. N. Kudin, 
 V. N. Staroverov, T. A. Keith, R. Kobayashi, J. Normand, 
 K. Raghavachari, A. P. Rendell, J. C. Burant, S. S. Iyengar, 
 J. Tomasi, M. Cossi, J. M. Millam, M. Klene, C. Adamo, R. Cammi, 
 J. W. Ochterski, R. L. Martin, K. Morokuma, O. Farkas, 
 J. B. Foresman, and D. J. Fox, Gaussian, Inc., Wallingford CT, 2016.
 
 ******************************************
 Gaussian 16:  EM64L-G16RevA.03 25-Dec-2016
                16-Mar-2023 
 ******************************************
 %chk=dimer14b_000_010_opt.chk
 %mem=2000MB
 %nproc=8
 Will use up to    8 processors via shared memory.
 ------------------------
 #p opt M062X/6-311g(d,p)
 ------------------------
 1/18=20,19=15,26=3,38=1/1,3;
 2/9=110,12=2,17=6,18=5,40=1/2;
 3/5=4,6=6,7=101,11=2,25=1,30=1,71=1,74=-55/1,2,3;
 4//1;
 5/5=2,38=5/2;
 6/7=2,8=2,9=2,10=2,28=1/1;
 7//1,2,3,16;
 1/18=20,19=15,26=3/3(2);
 2/9=110/2;
 99//99;
 2/9=110/2;
 3/5=4,6=6,7=101,11=2,25=1,30=1,71=1,74=-55/1,2,3;
 4/5=5,16=3,69=1/1;
 5/5=2,38=5/2;
 7//1,2,3,16;
 1/18=20,19=15,26=3/3(-5);
 2/9=110/2;
 6/7=2,8=2,9=2,10=2,19=2,28=1/1;
 99/9=1/99;
 Leave Link    1 at Thu Mar 16 19:15:00 2023, MaxMem=   262144000 cpu:               0.3 elap:               0.0
 (Enter /dragofs/sw/campus/0.2/software/gaussian/16.gaussian/gaussian/g16_legacy/l101.exe)
 ---------------------------------------------------------
 Optimization 03-DIHEDRAL_PHI_PSI_14b/dimer14b_000_010.log
 ---------------------------------------------------------
 Symbolic Z-matrix:
 Charge =  0 Multiplicity = 1
 C                    -3.8148   -0.64438   0.46509 
 H                    -3.57418  -0.71774   1.53303 
 O                    -5.1296   -1.02847   0.32619 
 H                    -5.30175  -1.18884  -0.60676 
 C                    -2.39908   1.24515   0.29446 
 H                    -2.1748    1.15835   1.36809 
 O                    -3.68046   0.70286   0.033 
 C                    -2.84855  -1.46531  -0.37076 
 H                    -3.12519  -1.30398  -1.42655 
 O                    -2.95655  -2.82097  -0.02589 
 H                    -2.25044  -3.26103  -0.5125 
 C                    -1.40002  -0.99857  -0.19874 
 H                    -1.08617  -1.1975    0.83236 
 O                    -0.6568   -1.78033  -1.11366 
 H                     0.13017  -2.12589  -0.66913 
 C                    -1.30754   0.50126  -0.48181 
 H                    -1.44631   0.64421  -1.56318 
 O                    -0.11058   1.16977  -0.07736 
 C                    -2.49924   2.7155   -0.07245 
 H                    -1.56698   3.22171   0.17526 
 H                    -2.66711   2.79069  -1.1565 
 O                    -3.52891   3.33767   0.65473 
 H                    -4.30226   2.77142   0.55791 
 C                     1.12738   0.63697  -0.38601 
 H                     1.20389   0.44268  -1.46991 
 C                     2.57026  -1.18331  -0.01196 
 H                     2.64558  -1.32981  -1.10035 
 O                     1.32685  -0.5768    0.30824 
 C                     2.175     1.64799   0.05464 
 H                     2.04324   1.81333   1.13204 
 O                     2.08235   2.85468  -0.66824 
 H                     1.20478   3.21828  -0.51584 
 C                     3.55514   1.07842  -0.20997 
 H                     3.67341   0.95062  -1.29656 
 O                     4.57774   1.90751   0.29802 
 H                     4.44088   2.78687  -0.06931 
 C                     3.70929  -0.28119   0.44819 
 H                     3.64216  -0.14825   1.5379 
 O                     4.92882  -0.88462   0.08565 
 H                     5.61494  -0.22075   0.21417 
 C                     2.57762  -2.53609   0.65439 
 H                     3.54178  -3.01733   0.4705 
 H                     2.42955  -2.40151   1.73183 
 O                     1.50394  -3.26652   0.07769 
 H                     1.39763  -4.10234   0.53605 
 
 ITRead=  0  0  0  0  0  0  0  0  0  0  0  0  0  0  0  0  0  0  0  0
 ITRead=  0  0  0  0  0  0  0  0  0  0  0  0  0  0  0  0  0  0  0  0
 ITRead=  0  0  0  0  0
 MicOpt= -1 -1 -1 -1 -1 -1 -1 -1 -1 -1 -1 -1 -1 -1 -1 -1 -1 -1 -1 -1
 MicOpt= -1 -1 -1 -1 -1 -1 -1 -1 -1 -1 -1 -1 -1 -1 -1 -1 -1 -1 -1 -1
 MicOpt= -1 -1 -1 -1 -1
 NAtoms=     45 NQM=       45 NQMF=       0 NMMI=      0 NMMIF=      0
                NMic=       0 NMicF=      0.
                    Isotopes and Nuclear Properties:
 (Nuclear quadrupole moments (NQMom) in fm**2, nuclear magnetic moments (NMagM)
  in nuclear magnetons)

  Atom         1           2           3           4           5           6           7           8           9          10
 IAtWgt=          12           1          16           1          12           1          16          12           1          16
 AtmWgt=  12.0000000   1.0078250  15.9949146   1.0078250  12.0000000   1.0078250  15.9949146  12.0000000   1.0078250  15.9949146
 NucSpn=           0           1           0           1           0           1           0           0           1           0
 AtZEff=  -0.0000000  -0.0000000  -0.0000000  -0.0000000  -0.0000000  -0.0000000  -0.0000000  -0.0000000  -0.0000000  -0.0000000
 NQMom=    0.0000000   0.0000000   0.0000000   0.0000000   0.0000000   0.0000000   0.0000000   0.0000000   0.0000000   0.0000000
 NMagM=    0.0000000   2.7928460   0.0000000   2.7928460   0.0000000   2.7928460   0.0000000   0.0000000   2.7928460   0.0000000
 AtZNuc=   6.0000000   1.0000000   8.0000000   1.0000000   6.0000000   1.0000000   8.0000000   6.0000000   1.0000000   8.0000000

  Atom        11          12          13          14          15          16          17          18          19          20
 IAtWgt=           1          12           1          16           1          12           1          16          12           1
 AtmWgt=   1.0078250  12.0000000   1.0078250  15.9949146   1.0078250  12.0000000   1.0078250  15.9949146  12.0000000   1.0078250
 NucSpn=           1           0           1           0           1           0           1           0           0           1
 AtZEff=  -0.0000000  -0.0000000  -0.0000000  -0.0000000  -0.0000000  -0.0000000  -0.0000000  -0.0000000  -0.0000000  -0.0000000
 NQMom=    0.0000000   0.0000000   0.0000000   0.0000000   0.0000000   0.0000000   0.0000000   0.0000000   0.0000000   0.0000000
 NMagM=    2.7928460   0.0000000   2.7928460   0.0000000   2.7928460   0.0000000   2.7928460   0.0000000   0.0000000   2.7928460
 AtZNuc=   1.0000000   6.0000000   1.0000000   8.0000000   1.0000000   6.0000000   1.0000000   8.0000000   6.0000000   1.0000000

  Atom        21          22          23          24          25          26          27          28          29          30
 IAtWgt=           1          16           1          12           1          12           1          16          12           1
 AtmWgt=   1.0078250  15.9949146   1.0078250  12.0000000   1.0078250  12.0000000   1.0078250  15.9949146  12.0000000   1.0078250
 NucSpn=           1           0           1           0           1           0           1           0           0           1
 AtZEff=  -0.0000000  -0.0000000  -0.0000000  -0.0000000  -0.0000000  -0.0000000  -0.0000000  -0.0000000  -0.0000000  -0.0000000
 NQMom=    0.0000000   0.0000000   0.0000000   0.0000000   0.0000000   0.0000000   0.0000000   0.0000000   0.0000000   0.0000000
 NMagM=    2.7928460   0.0000000   2.7928460   0.0000000   2.7928460   0.0000000   2.7928460   0.0000000   0.0000000   2.7928460
 AtZNuc=   1.0000000   8.0000000   1.0000000   6.0000000   1.0000000   6.0000000   1.0000000   8.0000000   6.0000000   1.0000000

  Atom        31          32          33          34          35          36          37          38          39          40
 IAtWgt=          16           1          12           1          16           1          12           1          16           1
 AtmWgt=  15.9949146   1.0078250  12.0000000   1.0078250  15.9949146   1.0078250  12.0000000   1.0078250  15.9949146   1.0078250
 NucSpn=           0           1           0           1           0           1           0           1           0           1
 AtZEff=  -0.0000000  -0.0000000  -0.0000000  -0.0000000  -0.0000000  -0.0000000  -0.0000000  -0.0000000  -0.0000000  -0.0000000
 NQMom=    0.0000000   0.0000000   0.0000000   0.0000000   0.0000000   0.0000000   0.0000000   0.0000000   0.0000000   0.0000000
 NMagM=    0.0000000   2.7928460   0.0000000   2.7928460   0.0000000   2.7928460   0.0000000   2.7928460   0.0000000   2.7928460
 AtZNuc=   8.0000000   1.0000000   6.0000000   1.0000000   8.0000000   1.0000000   6.0000000   1.0000000   8.0000000   1.0000000

  Atom        41          42          43          44          45
 IAtWgt=          12           1           1          16           1
 AtmWgt=  12.0000000   1.0078250   1.0078250  15.9949146   1.0078250
 NucSpn=           0           1           1           0           1
 AtZEff=  -0.0000000  -0.0000000  -0.0000000  -0.0000000  -0.0000000
 NQMom=    0.0000000   0.0000000   0.0000000   0.0000000   0.0000000
 NMagM=    0.0000000   2.7928460   2.7928460   0.0000000   2.7928460
 AtZNuc=   6.0000000   1.0000000   1.0000000   8.0000000   1.0000000
 Leave Link  101 at Thu Mar 16 19:15:01 2023, MaxMem=   262144000 cpu:               1.1 elap:               0.2
 (Enter /dragofs/sw/campus/0.2/software/gaussian/16.gaussian/gaussian/g16_legacy/l103.exe)

 GradGradGradGradGradGradGradGradGradGradGradGradGradGradGradGradGradGrad
 Berny optimization.
 Initialization pass.
                           ----------------------------
                           !    Initial Parameters    !
                           ! (Angstroms and Degrees)  !
 --------------------------                            --------------------------
 ! Name  Definition              Value          Derivative Info.                !
 --------------------------------------------------------------------------------
 ! R1    R(1,2)                  1.0972         estimate D2E/DX2                !
 ! R2    R(1,3)                  1.3768         estimate D2E/DX2                !
 ! R3    R(1,7)                  1.4212         estimate D2E/DX2                !
 ! R4    R(1,8)                  1.5186         estimate D2E/DX2                !
 ! R5    R(3,4)                  0.9622         estimate D2E/DX2                !
 ! R6    R(5,6)                  1.1002         estimate D2E/DX2                !
 ! R7    R(5,7)                  1.4158         estimate D2E/DX2                !
 ! R8    R(5,16)                 1.5321         estimate D2E/DX2                !
 ! R9    R(5,19)                 1.5187         estimate D2E/DX2                !
 ! R10   R(8,9)                  1.1033         estimate D2E/DX2                !
 ! R11   R(8,10)                 1.403          estimate D2E/DX2                !
 ! R12   R(8,12)                 1.5316         estimate D2E/DX2                !
 ! R13   R(10,11)                0.9639         estimate D2E/DX2                !
 ! R14   R(12,13)                1.096          estimate D2E/DX2                !
 ! R15   R(12,14)                1.4144         estimate D2E/DX2                !
 ! R16   R(12,16)                1.5291         estimate D2E/DX2                !
 ! R17   R(14,15)                0.9676         estimate D2E/DX2                !
 ! R18   R(16,17)                1.0996         estimate D2E/DX2                !
 ! R19   R(16,18)                1.4294         estimate D2E/DX2                !
 ! R20   R(18,24)                1.3826         estimate D2E/DX2                !
 ! R21   R(19,20)                1.0894         estimate D2E/DX2                !
 ! R22   R(19,21)                1.0995         estimate D2E/DX2                !
 ! R23   R(19,22)                1.4057         estimate D2E/DX2                !
 ! R24   R(22,23)                0.9634         estimate D2E/DX2                !
 ! R25   R(24,25)                1.1038         estimate D2E/DX2                !
 ! R26   R(24,28)                1.4124         estimate D2E/DX2                !
 ! R27   R(24,29)                1.5211         estimate D2E/DX2                !
 ! R28   R(26,27)                1.1008         estimate D2E/DX2                !
 ! R29   R(26,28)                1.42           estimate D2E/DX2                !
 ! R30   R(26,37)                1.5241         estimate D2E/DX2                !
 ! R31   R(26,41)                1.508          estimate D2E/DX2                !
 ! R32   R(29,30)                1.0979         estimate D2E/DX2                !
 ! R33   R(29,31)                1.4097         estimate D2E/DX2                !
 ! R34   R(29,33)                1.5163         estimate D2E/DX2                !
 ! R35   R(31,32)                0.9621         estimate D2E/DX2                !
 ! R36   R(33,34)                1.1005         estimate D2E/DX2                !
 ! R37   R(33,35)                1.4111         estimate D2E/DX2                !
 ! R38   R(33,37)                1.5184         estimate D2E/DX2                !
 ! R39   R(35,36)                0.9628         estimate D2E/DX2                !
 ! R40   R(37,38)                1.0998         estimate D2E/DX2                !
 ! R41   R(37,39)                1.4081         estimate D2E/DX2                !
 ! R42   R(39,40)                0.9633         estimate D2E/DX2                !
 ! R43   R(41,42)                1.0932         estimate D2E/DX2                !
 ! R44   R(41,43)                1.0959         estimate D2E/DX2                !
 ! R45   R(41,44)                1.4209         estimate D2E/DX2                !
 ! R46   R(44,45)                0.9592         estimate D2E/DX2                !
 ! A1    A(2,1,3)              106.797          estimate D2E/DX2                !
 ! A2    A(2,1,7)              109.7901         estimate D2E/DX2                !
 ! A3    A(2,1,8)              111.1035         estimate D2E/DX2                !
 ! A4    A(3,1,7)              108.9085         estimate D2E/DX2                !
 ! A5    A(3,1,8)              113.6594         estimate D2E/DX2                !
 ! A6    A(7,1,8)              106.5567         estimate D2E/DX2                !
 ! A7    A(1,3,4)              108.3724         estimate D2E/DX2                !
 ! A8    A(6,5,7)              109.5416         estimate D2E/DX2                !
 ! A9    A(6,5,16)             108.112          estimate D2E/DX2                !
 ! A10   A(6,5,19)             108.9996         estimate D2E/DX2                !
 ! A11   A(7,5,16)             111.4242         estimate D2E/DX2                !
 ! A12   A(7,5,19)             105.4573         estimate D2E/DX2                !
 ! A13   A(16,5,19)            113.2439         estimate D2E/DX2                !
 ! A14   A(1,7,5)              113.1108         estimate D2E/DX2                !
 ! A15   A(1,8,9)              106.7451         estimate D2E/DX2                !
 ! A16   A(1,8,10)             109.7588         estimate D2E/DX2                !
 ! A17   A(1,8,12)             112.0382         estimate D2E/DX2                !
 ! A18   A(9,8,10)             110.9288         estimate D2E/DX2                !
 ! A19   A(9,8,12)             107.4617         estimate D2E/DX2                !
 ! A20   A(10,8,12)            109.8566         estimate D2E/DX2                !
 ! A21   A(8,10,11)            105.1094         estimate D2E/DX2                !
 ! A22   A(8,12,13)            108.7348         estimate D2E/DX2                !
 ! A23   A(8,12,14)            104.8263         estimate D2E/DX2                !
 ! A24   A(8,12,16)            109.5923         estimate D2E/DX2                !
 ! A25   A(13,12,14)           110.962          estimate D2E/DX2                !
 ! A26   A(13,12,16)           109.5638         estimate D2E/DX2                !
 ! A27   A(14,12,16)           112.9917         estimate D2E/DX2                !
 ! A28   A(12,14,15)           109.1211         estimate D2E/DX2                !
 ! A29   A(5,16,12)            109.8375         estimate D2E/DX2                !
 ! A30   A(5,16,17)            110.1964         estimate D2E/DX2                !
 ! A31   A(5,16,18)            103.0704         estimate D2E/DX2                !
 ! A32   A(12,16,17)           107.574          estimate D2E/DX2                !
 ! A33   A(12,16,18)           117.1938         estimate D2E/DX2                !
 ! A34   A(17,16,18)           108.8528         estimate D2E/DX2                !
 ! A35   A(16,18,24)           120.4227         estimate D2E/DX2                !
 ! A36   A(5,19,20)            109.7856         estimate D2E/DX2                !
 ! A37   A(5,19,21)            108.3281         estimate D2E/DX2                !
 ! A38   A(5,19,22)            110.5993         estimate D2E/DX2                !
 ! A39   A(20,19,21)           108.8478         estimate D2E/DX2                !
 ! A40   A(20,19,22)           107.6708         estimate D2E/DX2                !
 ! A41   A(21,19,22)           111.5868         estimate D2E/DX2                !
 ! A42   A(19,22,23)           106.0136         estimate D2E/DX2                !
 ! A43   A(18,24,25)           110.4311         estimate D2E/DX2                !
 ! A44   A(18,24,28)           110.3572         estimate D2E/DX2                !
 ! A45   A(18,24,29)           107.2085         estimate D2E/DX2                !
 ! A46   A(25,24,28)           108.7599         estimate D2E/DX2                !
 ! A47   A(25,24,29)           110.7142         estimate D2E/DX2                !
 ! A48   A(28,24,29)           109.361          estimate D2E/DX2                !
 ! A49   A(27,26,28)           109.8592         estimate D2E/DX2                !
 ! A50   A(27,26,37)           109.0353         estimate D2E/DX2                !
 ! A51   A(27,26,41)           108.4926         estimate D2E/DX2                !
 ! A52   A(28,26,37)           109.4813         estimate D2E/DX2                !
 ! A53   A(28,26,41)           106.7254         estimate D2E/DX2                !
 ! A54   A(37,26,41)           113.198          estimate D2E/DX2                !
 ! A55   A(24,28,26)           112.325          estimate D2E/DX2                !
 ! A56   A(24,29,30)           107.5599         estimate D2E/DX2                !
 ! A57   A(24,29,31)           112.0324         estimate D2E/DX2                !
 ! A58   A(24,29,33)           109.0653         estimate D2E/DX2                !
 ! A59   A(30,29,31)           111.4942         estimate D2E/DX2                !
 ! A60   A(30,29,33)           109.6964         estimate D2E/DX2                !
 ! A61   A(31,29,33)           106.9695         estimate D2E/DX2                !
 ! A62   A(29,31,32)           107.5914         estimate D2E/DX2                !
 ! A63   A(29,33,34)           108.2858         estimate D2E/DX2                !
 ! A64   A(29,33,35)           112.0917         estimate D2E/DX2                !
 ! A65   A(29,33,37)           110.6775         estimate D2E/DX2                !
 ! A66   A(34,33,35)           110.2314         estimate D2E/DX2                !
 ! A67   A(34,33,37)           108.2458         estimate D2E/DX2                !
 ! A68   A(35,33,37)           107.2478         estimate D2E/DX2                !
 ! A69   A(33,35,36)           107.2344         estimate D2E/DX2                !
 ! A70   A(26,37,33)           108.8608         estimate D2E/DX2                !
 ! A71   A(26,37,38)           108.9696         estimate D2E/DX2                !
 ! A72   A(26,37,39)           108.4128         estimate D2E/DX2                !
 ! A73   A(33,37,38)           108.3632         estimate D2E/DX2                !
 ! A74   A(33,37,39)           111.103          estimate D2E/DX2                !
 ! A75   A(38,37,39)           111.0845         estimate D2E/DX2                !
 ! A76   A(37,39,40)           106.689          estimate D2E/DX2                !
 ! A77   A(26,41,42)           108.9583         estimate D2E/DX2                !
 ! A78   A(26,41,43)           108.8822         estimate D2E/DX2                !
 ! A79   A(26,41,44)           106.1476         estimate D2E/DX2                !
 ! A80   A(42,41,43)           109.7937         estimate D2E/DX2                !
 ! A81   A(42,41,44)           111.8323         estimate D2E/DX2                !
 ! A82   A(43,41,44)           111.105          estimate D2E/DX2                !
 ! A83   A(41,44,45)           109.7401         estimate D2E/DX2                !
 ! D1    D(2,1,3,4)           -165.8118         estimate D2E/DX2                !
 ! D2    D(7,1,3,4)             75.683          estimate D2E/DX2                !
 ! D3    D(8,1,3,4)            -42.9329         estimate D2E/DX2                !
 ! D4    D(2,1,7,5)             55.8726         estimate D2E/DX2                !
 ! D5    D(3,1,7,5)            172.4813         estimate D2E/DX2                !
 ! D6    D(8,1,7,5)            -64.537          estimate D2E/DX2                !
 ! D7    D(2,1,8,9)           -177.4475         estimate D2E/DX2                !
 ! D8    D(2,1,8,10)            62.2585         estimate D2E/DX2                !
 ! D9    D(2,1,8,12)           -60.0701         estimate D2E/DX2                !
 ! D10   D(3,1,8,9)             62.0703         estimate D2E/DX2                !
 ! D11   D(3,1,8,10)           -58.2237         estimate D2E/DX2                !
 ! D12   D(3,1,8,12)           179.4477         estimate D2E/DX2                !
 ! D13   D(7,1,8,9)            -57.8866         estimate D2E/DX2                !
 ! D14   D(7,1,8,10)          -178.1806         estimate D2E/DX2                !
 ! D15   D(7,1,8,12)            59.4909         estimate D2E/DX2                !
 ! D16   D(6,5,7,1)            -56.0964         estimate D2E/DX2                !
 ! D17   D(16,5,7,1)            63.4833         estimate D2E/DX2                !
 ! D18   D(19,5,7,1)          -173.2626         estimate D2E/DX2                !
 ! D19   D(6,5,16,12)           66.8709         estimate D2E/DX2                !
 ! D20   D(6,5,16,17)         -174.7879         estimate D2E/DX2                !
 ! D21   D(6,5,16,18)          -58.7563         estimate D2E/DX2                !
 ! D22   D(7,5,16,12)          -53.5531         estimate D2E/DX2                !
 ! D23   D(7,5,16,17)           64.7882         estimate D2E/DX2                !
 ! D24   D(7,5,16,18)         -179.1802         estimate D2E/DX2                !
 ! D25   D(19,5,16,12)        -172.2467         estimate D2E/DX2                !
 ! D26   D(19,5,16,17)         -53.9055         estimate D2E/DX2                !
 ! D27   D(19,5,16,18)          62.1261         estimate D2E/DX2                !
 ! D28   D(6,5,19,20)           58.1207         estimate D2E/DX2                !
 ! D29   D(6,5,19,21)          176.8608         estimate D2E/DX2                !
 ! D30   D(6,5,19,22)          -60.5541         estimate D2E/DX2                !
 ! D31   D(7,5,19,20)          175.6533         estimate D2E/DX2                !
 ! D32   D(7,5,19,21)          -65.6066         estimate D2E/DX2                !
 ! D33   D(7,5,19,22)           56.9785         estimate D2E/DX2                !
 ! D34   D(16,5,19,20)         -62.2585         estimate D2E/DX2                !
 ! D35   D(16,5,19,21)          56.4816         estimate D2E/DX2                !
 ! D36   D(16,5,19,22)         179.0667         estimate D2E/DX2                !
 ! D37   D(1,8,10,11)         -173.4597         estimate D2E/DX2                !
 ! D38   D(9,8,10,11)           68.8212         estimate D2E/DX2                !
 ! D39   D(12,8,10,11)         -49.8437         estimate D2E/DX2                !
 ! D40   D(1,8,12,13)           65.9317         estimate D2E/DX2                !
 ! D41   D(1,8,12,14)         -175.3469         estimate D2E/DX2                !
 ! D42   D(1,8,12,16)          -53.8066         estimate D2E/DX2                !
 ! D43   D(9,8,12,13)         -177.1207         estimate D2E/DX2                !
 ! D44   D(9,8,12,14)          -58.3992         estimate D2E/DX2                !
 ! D45   D(9,8,12,16)           63.1411         estimate D2E/DX2                !
 ! D46   D(10,8,12,13)         -56.3412         estimate D2E/DX2                !
 ! D47   D(10,8,12,14)          62.3803         estimate D2E/DX2                !
 ! D48   D(10,8,12,16)        -176.0794         estimate D2E/DX2                !
 ! D49   D(8,12,14,15)        -133.449          estimate D2E/DX2                !
 ! D50   D(13,12,14,15)        -16.2421         estimate D2E/DX2                !
 ! D51   D(16,12,14,15)        107.2681         estimate D2E/DX2                !
 ! D52   D(8,12,16,5)           48.8854         estimate D2E/DX2                !
 ! D53   D(8,12,16,17)         -71.0648         estimate D2E/DX2                !
 ! D54   D(8,12,16,18)         165.992          estimate D2E/DX2                !
 ! D55   D(13,12,16,5)         -70.3437         estimate D2E/DX2                !
 ! D56   D(13,12,16,17)        169.7062         estimate D2E/DX2                !
 ! D57   D(13,12,16,18)         46.7629         estimate D2E/DX2                !
 ! D58   D(14,12,16,5)         165.3777         estimate D2E/DX2                !
 ! D59   D(14,12,16,17)         45.4276         estimate D2E/DX2                !
 ! D60   D(14,12,16,18)        -77.5157         estimate D2E/DX2                !
 ! D61   D(5,16,18,24)         168.6579         estimate D2E/DX2                !
 ! D62   D(12,16,18,24)         47.9303         estimate D2E/DX2                !
 ! D63   D(17,16,18,24)        -74.3553         estimate D2E/DX2                !
 ! D64   D(16,18,24,25)         53.6565         estimate D2E/DX2                !
 ! D65   D(16,18,24,28)        -66.6268         estimate D2E/DX2                !
 ! D66   D(16,18,24,29)        174.3545         estimate D2E/DX2                !
 ! D67   D(5,19,22,23)         -49.1184         estimate D2E/DX2                !
 ! D68   D(20,19,22,23)       -169.0703         estimate D2E/DX2                !
 ! D69   D(21,19,22,23)         71.5447         estimate D2E/DX2                !
 ! D70   D(18,24,28,26)        178.0946         estimate D2E/DX2                !
 ! D71   D(25,24,28,26)         56.8126         estimate D2E/DX2                !
 ! D72   D(29,24,28,26)        -64.2044         estimate D2E/DX2                !
 ! D73   D(18,24,29,30)         58.6522         estimate D2E/DX2                !
 ! D74   D(18,24,29,31)        -64.2123         estimate D2E/DX2                !
 ! D75   D(18,24,29,33)        177.5592         estimate D2E/DX2                !
 ! D76   D(25,24,29,30)        179.1706         estimate D2E/DX2                !
 ! D77   D(25,24,29,31)         56.3061         estimate D2E/DX2                !
 ! D78   D(25,24,29,33)        -61.9224         estimate D2E/DX2                !
 ! D79   D(28,24,29,30)        -61.0066         estimate D2E/DX2                !
 ! D80   D(28,24,29,31)        176.1288         estimate D2E/DX2                !
 ! D81   D(28,24,29,33)         57.9004         estimate D2E/DX2                !
 ! D82   D(27,26,28,24)        -55.6432         estimate D2E/DX2                !
 ! D83   D(37,26,28,24)         64.0663         estimate D2E/DX2                !
 ! D84   D(41,26,28,24)       -173.0736         estimate D2E/DX2                !
 ! D85   D(27,26,37,33)         62.8722         estimate D2E/DX2                !
 ! D86   D(27,26,37,38)       -179.1286         estimate D2E/DX2                !
 ! D87   D(27,26,37,39)        -58.1071         estimate D2E/DX2                !
 ! D88   D(28,26,37,33)        -57.342          estimate D2E/DX2                !
 ! D89   D(28,26,37,38)         60.6572         estimate D2E/DX2                !
 ! D90   D(28,26,37,39)       -178.3212         estimate D2E/DX2                !
 ! D91   D(41,26,37,33)       -176.2704         estimate D2E/DX2                !
 ! D92   D(41,26,37,38)        -58.2712         estimate D2E/DX2                !
 ! D93   D(41,26,37,39)         62.7503         estimate D2E/DX2                !
 ! D94   D(27,26,41,42)         64.3457         estimate D2E/DX2                !
 ! D95   D(27,26,41,43)       -175.9243         estimate D2E/DX2                !
 ! D96   D(27,26,41,44)        -56.2402         estimate D2E/DX2                !
 ! D97   D(28,26,41,42)       -177.3254         estimate D2E/DX2                !
 ! D98   D(28,26,41,43)        -57.5955         estimate D2E/DX2                !
 ! D99   D(28,26,41,44)         62.0886         estimate D2E/DX2                !
 ! D100  D(37,26,41,42)        -56.8184         estimate D2E/DX2                !
 ! D101  D(37,26,41,43)         62.9115         estimate D2E/DX2                !
 ! D102  D(37,26,41,44)       -177.4044         estimate D2E/DX2                !
 ! D103  D(24,29,31,32)         59.7978         estimate D2E/DX2                !
 ! D104  D(30,29,31,32)        -60.8101         estimate D2E/DX2                !
 ! D105  D(33,29,31,32)        179.2639         estimate D2E/DX2                !
 ! D106  D(24,29,33,34)         64.1214         estimate D2E/DX2                !
 ! D107  D(24,29,33,35)       -174.0633         estimate D2E/DX2                !
 ! D108  D(24,29,33,37)        -54.3791         estimate D2E/DX2                !
 ! D109  D(30,29,33,34)       -178.3128         estimate D2E/DX2                !
 ! D110  D(30,29,33,35)        -56.4974         estimate D2E/DX2                !
 ! D111  D(30,29,33,37)         63.1868         estimate D2E/DX2                !
 ! D112  D(31,29,33,34)        -57.2398         estimate D2E/DX2                !
 ! D113  D(31,29,33,35)         64.5756         estimate D2E/DX2                !
 ! D114  D(31,29,33,37)       -175.7402         estimate D2E/DX2                !
 ! D115  D(29,33,35,36)        -54.2284         estimate D2E/DX2                !
 ! D116  D(34,33,35,36)         66.4669         estimate D2E/DX2                !
 ! D117  D(37,33,35,36)       -175.8995         estimate D2E/DX2                !
 ! D118  D(29,33,37,26)         54.0837         estimate D2E/DX2                !
 ! D119  D(29,33,37,38)        -64.2977         estimate D2E/DX2                !
 ! D120  D(29,33,37,39)        173.399          estimate D2E/DX2                !
 ! D121  D(34,33,37,26)        -64.441          estimate D2E/DX2                !
 ! D122  D(34,33,37,38)        177.1776         estimate D2E/DX2                !
 ! D123  D(34,33,37,39)         54.8743         estimate D2E/DX2                !
 ! D124  D(35,33,37,26)        176.6372         estimate D2E/DX2                !
 ! D125  D(35,33,37,38)         58.2558         estimate D2E/DX2                !
 ! D126  D(35,33,37,39)        -64.0475         estimate D2E/DX2                !
 ! D127  D(26,37,39,40)        168.2362         estimate D2E/DX2                !
 ! D128  D(33,37,39,40)         48.6533         estimate D2E/DX2                !
 ! D129  D(38,37,39,40)        -72.0582         estimate D2E/DX2                !
 ! D130  D(26,41,44,45)       -173.5585         estimate D2E/DX2                !
 ! D131  D(42,41,44,45)         67.7332         estimate D2E/DX2                !
 ! D132  D(43,41,44,45)        -55.3364         estimate D2E/DX2                !
 --------------------------------------------------------------------------------
 Trust Radius=3.00D-01 FncErr=1.00D-07 GrdErr=1.00D-06 EigMax=2.50D+02 EigMin=1.00D-04
 Number of steps in this run=    270 maximum allowed number of steps=    270.
 GradGradGradGradGradGradGradGradGradGradGradGradGradGradGradGradGradGrad

 Leave Link  103 at Thu Mar 16 19:15:01 2023, MaxMem=   262144000 cpu:               0.2 elap:               0.0
 (Enter /dragofs/sw/campus/0.2/software/gaussian/16.gaussian/gaussian/g16_legacy/l202.exe)
                          Input orientation:                          
 ---------------------------------------------------------------------
 Center     Atomic      Atomic             Coordinates (Angstroms)
 Number     Number       Type             X           Y           Z
 ---------------------------------------------------------------------
      1          6           0       -3.814802   -0.644382    0.465085
      2          1           0       -3.574184   -0.717736    1.533031
      3          8           0       -5.129600   -1.028466    0.326189
      4          1           0       -5.301755   -1.188839   -0.606763
      5          6           0       -2.399076    1.245148    0.294457
      6          1           0       -2.174797    1.158352    1.368087
      7          8           0       -3.680459    0.702864    0.033001
      8          6           0       -2.848546   -1.465308   -0.370756
      9          1           0       -3.125191   -1.303983   -1.426550
     10          8           0       -2.956554   -2.820969   -0.025889
     11          1           0       -2.250442   -3.261034   -0.512502
     12          6           0       -1.400024   -0.998572   -0.198742
     13          1           0       -1.086169   -1.197496    0.832357
     14          8           0       -0.656798   -1.780331   -1.113658
     15          1           0        0.130165   -2.125893   -0.669125
     16          6           0       -1.307541    0.501255   -0.481805
     17          1           0       -1.446310    0.644206   -1.563178
     18          8           0       -0.110579    1.169770   -0.077364
     19          6           0       -2.499243    2.715497   -0.072447
     20          1           0       -1.566977    3.221709    0.175259
     21          1           0       -2.667112    2.790693   -1.156501
     22          8           0       -3.528907    3.337667    0.654733
     23          1           0       -4.302260    2.771424    0.557914
     24          6           0        1.127382    0.636965   -0.386005
     25          1           0        1.203888    0.442676   -1.469908
     26          6           0        2.570259   -1.183314   -0.011962
     27          1           0        2.645581   -1.329813   -1.100346
     28          8           0        1.326846   -0.576802    0.308239
     29          6           0        2.174996    1.647991    0.054641
     30          1           0        2.043236    1.813329    1.132036
     31          8           0        2.082354    2.854679   -0.668241
     32          1           0        1.204777    3.218283   -0.515837
     33          6           0        3.555142    1.078423   -0.209968
     34          1           0        3.673414    0.950617   -1.296558
     35          8           0        4.577744    1.907512    0.298016
     36          1           0        4.440879    2.786868   -0.069308
     37          6           0        3.709285   -0.281189    0.448192
     38          1           0        3.642161   -0.148249    1.537898
     39          8           0        4.928824   -0.884620    0.085652
     40          1           0        5.614940   -0.220748    0.214168
     41          6           0        2.577624   -2.536090    0.654394
     42          1           0        3.541785   -3.017325    0.470499
     43          1           0        2.429549   -2.401510    1.731829
     44          8           0        1.503935   -3.266522    0.077691
     45          1           0        1.397625   -4.102338    0.536054
 ---------------------------------------------------------------------
                    Distance matrix (angstroms):
                    1          2          3          4          5
     1  C    0.000000
     2  H    1.097172   0.000000
     3  O    1.376774   1.993073   0.000000
     4  H    1.912151   2.790190   0.962162   0.000000
     5  C    2.367217   2.601511   3.553321   3.893846   0.000000
     6  H    2.599015   2.346316   3.820809   4.380320   1.100235
     7  O    1.421202   2.068693   2.276724   2.572244   1.415759
     8  C    1.518618   2.170212   2.424824   2.479994   2.826854
     9  H    2.118707   3.050311   2.676875   2.328678   3.160250
    10  O    2.390643   2.689849   2.838865   2.915687   4.116638
    11  H    3.201526   3.522054   3.738625   3.689633   4.580278
    12  C    2.529282   2.793721   3.766455   3.927619   2.505121
    13  H    2.808249   2.628941   4.078494   4.454470   2.824813
    14  O    3.708881   4.079854   4.758615   4.709823   3.764551
    15  H    4.363951   4.533718   5.464442   5.512505   4.323132
    16  C    2.914694   3.268512   4.195359   4.338868   1.532125
    17  H    3.374028   3.996154   4.464769   4.374842   2.172488
    18  O    4.160128   4.260588   5.494149   5.726396   2.319731
    19  C    3.648071   3.939562   4.592924   4.835639   1.518742
    20  H    4.481448   4.625111   5.547887   5.832072   2.147880
    21  H    3.968183   4.512808   4.779978   4.804189   2.136781
    22  O    3.996801   4.149669   4.661896   5.022312   2.405193
    23  H    3.451661   3.695292   3.895812   4.247252   2.453780
    24  C    5.176040   5.255724   6.513886   6.687010   3.642639
    25  H    5.487544   5.761438   6.745613   6.762415   4.091246
    26  C    6.425498   6.352790   7.708836   7.894455   5.539459
    27  H    6.682585   6.781946   7.910705   7.963896   5.833049
    28  O    5.144484   5.053719   6.472250   6.719388   4.147552
    29  C    6.426595   6.390256   7.784233   8.024143   4.598035
    30  H    6.387627   6.174342   7.757239   8.123135   4.556150
    31  O    6.950130   7.043023   8.251060   8.418960   4.858044
    32  H    6.409256   6.521394   7.672563   7.859132   4.187791
    33  C    7.598673   7.555893   8.952720   9.151095   5.977872
    34  H    7.856258   7.957239   9.167504   9.252391   6.284363
    35  O    8.773534   8.652810  10.141661  10.392811   7.008192
    36  H    8.956301   8.893311  10.310541  10.536319   7.020984
    37  C    7.532867   7.376745   8.871257   9.117873   6.298048
    38  H    7.550058   7.238783   8.898697   9.256135   6.323310
    39  O    8.755152   8.626929  10.062328  10.258496   7.633979
    40  H    9.442588   9.296580  10.775440  10.990239   8.147377
    41  C    6.669146   6.474809   7.860150   8.092603   6.260580
    42  H    7.729829   7.553416   8.897713   9.094617   7.313925
    43  H    6.609392   6.238544   7.810365   8.167781   6.219306
    44  O    5.942614   5.865289   7.005315   7.148612   5.969560
    45  H    6.255549   6.096587   7.217853   7.394336   6.562691
                    6          7          8          9         10
     6  H    0.000000
     7  O    2.063236   0.000000
     8  C    3.218867   2.357131   0.000000
     9  H    3.844000   2.542842   1.103295   0.000000
    10  O    4.288276   3.597903   1.403002   2.071602   0.000000
    11  H    4.803469   4.249119   1.898013   2.330390   0.963869
    12  C    2.776247   2.854641   1.531551   2.139390   2.402872
    13  H    2.649932   3.313711   2.150622   3.044932   2.621181
    14  O    4.135122   4.077206   2.335573   2.533332   2.748644
    15  H    4.499928   4.797468   3.065635   3.441885   3.228733
    16  C    2.146162   2.436475   2.500880   2.730436   3.736880
    17  H    3.063879   2.746389   2.799676   2.575412   4.080629
    18  O    2.520011   3.601975   3.811322   4.126456   4.901859
    19  C    2.145951   2.336040   4.205964   4.287380   5.555516
    20  H    2.459619   3.291143   4.889650   5.047347   6.203656
    21  H    3.046384   2.607838   4.331727   4.129060   5.731737
    22  O    2.663062   2.711403   4.958133   5.102905   6.222510
    23  H    2.790068   2.222861   4.574452   4.683218   5.781575
    24  C    3.775324   4.826515   4.497531   4.788986   5.363350
    25  H    4.470114   5.116960   4.612023   4.668364   5.481409
    26  C    5.468408   6.529255   5.437987   5.869733   5.764353
    27  H    5.959880   6.740551   5.544014   5.780042   5.895924
    28  O    4.049141   5.175558   4.322543   4.833107   4.847210
    29  C    4.570075   5.931280   5.925333   6.245003   6.805211
    30  H    4.275104   5.933102   6.077613   6.555657   6.914869
    31  O    5.014727   6.191289   6.562359   6.707311   7.616836
    32  H    4.383378   5.522145   6.195684   6.326841   7.350462
    33  C    5.943807   7.249414   6.892288   7.196025   7.592189
    34  H    6.430012   7.477202   7.016393   7.163878   7.732783
    35  O    6.877725   8.349810   8.183701   8.521915   8.901073
    36  H    6.963141   8.385086   8.444382   8.707616   9.282873
    37  C    6.127063   7.466529   6.714012   7.160365   7.149031
    38  H    5.964314   7.523953   6.892524   7.478016   7.289163
    39  O    7.501987   8.754578   7.812361   8.205472   8.120411
    40  H    7.994589   9.342929   8.574477   8.958529   8.960429
    41  C    6.061664   7.073935   5.625018   6.194394   5.583106
    42  H    7.135913   8.135848   6.629691   7.140231   6.520227
    43  H    5.831374   7.060832   5.758092   6.483445   5.681164
    44  O    5.897262   6.529622   4.731762   5.248153   4.483883
    45  H    6.413216   7.009277   5.079980   5.669080   4.573463
                   11         12         13         14         15
    11  H    0.000000
    12  C    2.437292   0.000000
    13  H    2.724402   1.096011   0.000000
    14  O    2.256894   1.414427   2.076302   0.000000
    15  H    2.642038   1.957956   2.143790   0.967643   0.000000
    16  C    3.878766   1.529104   2.159116   2.455268   3.000666
    17  H    4.123281   2.136012   3.043050   2.589165   3.310295
    18  O    4.939674   2.525690   2.717226   3.174170   3.357013
    19  C    5.997872   3.875376   4.257577   4.969023   5.541558
    20  H    6.554853   4.240109   4.493587   5.245011   5.673634
    21  H    6.100143   4.108691   4.728698   4.993742   5.677597
    22  O    6.822006   4.905459   5.154243   6.129447   6.707600
    23  H    6.461137   4.817507   5.115749   6.066467   6.718313
    24  C    5.159466   3.016261   3.122413   3.091294   2.950929
    25  H    5.154269   3.236266   3.637987   2.920758   2.896840
    26  C    5.273198   3.978965   3.752671   3.461800   2.697105
    27  H    5.295868   4.158068   4.204617   3.332994   2.673390
    28  O    4.547055   2.805484   2.546095   2.721234   2.187914
    29  C    6.633602   4.455252   4.397367   4.597540   4.352858
    30  H    6.847579   4.640452   4.352936   5.024711   4.735134
    31  O    7.496621   5.214876   5.358307   5.402284   5.349499
    32  H    7.343031   4.966629   5.154141   5.367401   5.453302
    33  C    7.254462   5.372867   5.273331   5.170065   4.712636
    34  H    7.310596   5.544755   5.639175   5.122721   4.734258
    35  O    8.602031   6.665268   6.481243   6.556938   6.081503
    36  H    9.030355   6.961498   6.872875   6.923603   6.563327
    37  C    6.732069   5.199827   4.897303   4.873344   4.178688
    38  H    6.972542   5.400240   4.894467   5.308059   4.595230
    39  O    7.585973   6.336259   6.069234   5.782717   5.013739
    40  H    8.463783   7.070023   6.800078   6.597736   5.873035
    41  C    5.019702   4.348964   3.904726   3.762800   2.812476
    42  H    5.880100   5.380030   4.986048   4.654869   3.705745
    43  H    5.261000   4.512313   3.823477   4.243607   3.335822
    44  O    3.800487   3.694995   3.399857   2.880424   1.935462
    45  H    3.887886   4.242656   3.833423   3.511968   2.639175
                   16         17         18         19         20
    16  C    0.000000
    17  H    1.099572   0.000000
    18  O    1.429406   2.065923   0.000000
    19  C    2.547665   2.760651   2.845173   0.000000
    20  H    2.810678   3.111309   2.528906   1.089371   0.000000
    21  H    2.746848   2.502629   3.213688   1.099549   1.780353
    22  O    3.777753   4.063382   4.113479   1.405736   2.022996
    23  H    3.899106   4.144941   4.532004   1.910851   2.798384
    24  C    2.440583   2.830138   1.382638   4.191780   3.775644
    25  H    2.699455   2.659485   2.048333   4.564186   4.255266
    26  C    4.253923   4.677492   3.567657   6.395642   6.046156
    27  H    4.400293   4.566677   3.858863   6.624977   6.331601
    28  O    2.954043   3.561384   2.294645   5.061928   4.777089
    29  C    3.705515   4.091305   2.338797   4.796273   4.061219
    30  H    3.943821   4.561574   2.552594   4.785269   3.991565
    31  O    4.130950   4.258940   2.827898   4.622269   3.763485
    32  H    3.700695   3.840711   2.473626   3.764193   2.856614
    33  C    4.904356   5.199446   3.669256   6.273317   5.565804
    34  H    5.067116   5.135810   3.981591   6.535667   5.897949
    35  O    6.101005   6.430335   4.760835   7.132589   6.284885
    36  H    6.199880   6.440624   4.830201   6.940490   6.028535
    37  C    5.161943   5.610893   4.119812   6.913538   6.339064
    38  H    5.385221   6.011422   4.292936   6.964991   6.352049
    39  O    6.413650   6.760051   5.444509   8.256029   7.685402
    40  H    6.994742   7.332691   5.899161   8.633866   7.964418
    41  C    5.060723   5.587840   4.636303   7.340439   7.110523
    42  H    6.066568   6.513351   5.583161   8.345901   8.069211
    43  H    5.224180   5.929228   4.741252   7.330223   7.072179
    44  O    4.734298   5.166255   4.723493   7.199481   7.178939
    45  H    5.435718   5.918143   5.517797   7.876467   7.909532
                   21         22         23         24         25
    21  H    0.000000
    22  O    2.079048   0.000000
    23  H    2.369240   0.963369   0.000000
    24  C    4.430620   5.482513   5.909984   0.000000
    25  H    4.538287   5.940911   6.312907   1.103833   0.000000
    26  C    6.673287   7.621258   7.949606   2.352704   2.576125
    27  H    6.723573   7.936622   8.236654   2.585232   2.314470
    28  O    5.425605   6.246716   6.554372   1.412441   2.053354
    29  C    5.120414   5.979099   6.593196   1.521130   2.172576
    30  H    5.327290   5.796568   6.443049   2.127691   3.058318
    31  O    4.774926   5.785308   6.501822   2.431025   2.689262
    32  H    3.947760   4.877730   5.628506   2.585740   2.935004
    33  C    6.522594   7.485696   8.074321   2.473842   2.742265
    34  H    6.603618   7.834473   8.388431   2.722088   2.527175
    35  O    7.442014   8.239562   8.925714   3.739943   4.080956
    36  H    7.190656   8.021540   8.765622   3.962530   4.234977
    37  C    7.257406   8.095073   8.574109   2.864457   3.237299
    38  H    7.463517   8.022207   8.520486   3.262220   3.916793
    39  O    8.529309   9.470205   9.939950   4.121728   4.249309
    40  H    8.918514   9.821729  10.364464   4.608043   4.767979
    41  C    7.691633   8.472942   8.689754   3.640592   3.908050
    42  H    8.656247   9.508657   9.749169   4.462822   4.604623
    43  H    7.827987   8.342751   8.570564   3.925964   4.454521
    44  O    7.457259   8.323328   8.390429   3.948926   4.030290
    45  H    8.179285   8.924039   8.929601   4.835723   4.971777
                   26         27         28         29         30
    26  C    0.000000
    27  H    1.100779   0.000000
    28  O    1.420022   2.071280   0.000000
    29  C    2.859538   3.228430   2.394447   0.000000
    30  H    3.250593   3.902011   2.627657   1.097942   0.000000
    31  O    4.119969   4.244280   3.646830   1.409694   2.080129
    32  H    4.635999   4.806531   3.885444   1.931990   2.322153
    33  C    2.474804   2.723908   2.823758   1.516321   2.151028
    34  H    2.724114   2.509044   3.227191   2.134789   3.049561
    35  O    3.698552   4.021062   4.091486   2.428946   2.669867
    36  H    4.389175   4.607949   4.599350   2.539021   2.853016
    37  C    1.524123   2.151522   2.404785   2.496129   2.762312
    38  H    2.149977   3.057711   2.656389   2.753017   2.563020
    39  O    2.379407   2.611127   3.621953   3.741477   4.086620
    40  H    3.201211   3.431481   4.303879   3.918016   4.211534
    41  C    1.508008   2.130454   2.350123   4.245980   4.408079
    42  H    2.130781   2.473547   3.299763   4.879162   5.100833
    43  H    2.131809   3.035856   2.563615   4.390469   4.274793
    44  O    2.341974   2.538103   2.705385   4.960171   5.216069
    45  H    3.193132   3.452839   3.533598   5.822572   5.980562
                   31         32         33         34         35
    31  O    0.000000
    32  H    0.962069   0.000000
    33  C    2.352489   3.193239   0.000000
    34  H    2.559630   3.441802   1.100455   0.000000
    35  O    2.838617   3.709095   1.411082   2.067880   0.000000
    36  H    2.434329   3.295127   1.929534   2.338154   0.962770
    37  C    3.704996   4.410013   1.518381   2.136068   2.359488
    38  H    4.039508   4.635969   2.137132   3.040168   2.576582
    39  O    4.759528   5.573520   2.414111   2.618139   2.822119
    40  H    4.766137   5.639980   2.471943   2.724686   2.369029
    41  C    5.572705   6.030502   3.842833   4.142957   4.886009
    42  H    6.156874   6.731810   4.151911   4.345616   5.035572
    43  H    5.788644   6.175285   4.140950   4.685625   5.023767
    44  O    6.193552   6.518778   4.813392   4.937556   6.022248
    45  H    7.093607   7.398321   5.661423   5.836954   6.803537
                   36         37         38         39         40
    36  H    0.000000
    37  C    3.196249   0.000000
    38  H    3.440345   1.099835   0.000000
    39  O    3.707011   1.408133   2.075274   0.000000
    40  H    3.241070   1.920922   2.376841   0.963326   0.000000
    41  C    5.685890   2.531354   2.759638   2.928987   3.844463
    42  H    5.898171   2.741349   3.062844   2.573017   3.490633
    43  H    5.848830   2.789482   2.566169   3.355180   4.147979
    44  O    6.729842   3.730020   4.053127   4.171736   5.118176
    45  H    7.555727   4.466841   4.655798   4.798535   5.740740
                   41         42         43         44         45
    41  C    0.000000
    42  H    1.093166   0.000000
    43  H    1.095858   1.790880   0.000000
    44  O    1.420889   2.090270   2.083550   0.000000
    45  H    1.964570   2.403949   2.321112   0.959159   0.000000
 Stoichiometry    C12H22O11
 Framework group  C1[X(C12H22O11)]
 Deg. of freedom   129
 Full point group                 C1      NOp   1
 Largest Abelian subgroup         C1      NOp   1
 Largest concise Abelian subgroup C1      NOp   1
                         Standard orientation:                         
 ---------------------------------------------------------------------
 Center     Atomic      Atomic             Coordinates (Angstroms)
 Number     Number       Type             X           Y           Z
 ---------------------------------------------------------------------
      1          6           0        3.814802   -0.644382   -0.465085
      2          1           0        3.574184   -0.717736   -1.533031
      3          8           0        5.129600   -1.028466   -0.326189
      4          1           0        5.301755   -1.188839    0.606763
      5          6           0        2.399076    1.245148   -0.294457
      6          1           0        2.174797    1.158352   -1.368087
      7          8           0        3.680459    0.702864   -0.033001
      8          6           0        2.848546   -1.465308    0.370756
      9          1           0        3.125191   -1.303983    1.426550
     10          8           0        2.956554   -2.820969    0.025889
     11          1           0        2.250442   -3.261034    0.512502
     12          6           0        1.400024   -0.998572    0.198742
     13          1           0        1.086169   -1.197496   -0.832357
     14          8           0        0.656798   -1.780331    1.113658
     15          1           0       -0.130165   -2.125893    0.669125
     16          6           0        1.307541    0.501255    0.481805
     17          1           0        1.446310    0.644206    1.563178
     18          8           0        0.110579    1.169770    0.077364
     19          6           0        2.499243    2.715497    0.072447
     20          1           0        1.566977    3.221709   -0.175259
     21          1           0        2.667112    2.790693    1.156501
     22          8           0        3.528907    3.337667   -0.654733
     23          1           0        4.302260    2.771424   -0.557914
     24          6           0       -1.127382    0.636965    0.386005
     25          1           0       -1.203888    0.442676    1.469908
     26          6           0       -2.570259   -1.183314    0.011962
     27          1           0       -2.645581   -1.329813    1.100346
     28          8           0       -1.326846   -0.576802   -0.308239
     29          6           0       -2.174996    1.647991   -0.054641
     30          1           0       -2.043236    1.813329   -1.132036
     31          8           0       -2.082354    2.854679    0.668241
     32          1           0       -1.204777    3.218283    0.515837
     33          6           0       -3.555142    1.078423    0.209968
     34          1           0       -3.673414    0.950617    1.296558
     35          8           0       -4.577744    1.907512   -0.298016
     36          1           0       -4.440879    2.786868    0.069308
     37          6           0       -3.709285   -0.281189   -0.448192
     38          1           0       -3.642161   -0.148249   -1.537898
     39          8           0       -4.928824   -0.884620   -0.085652
     40          1           0       -5.614940   -0.220748   -0.214168
     41          6           0       -2.577624   -2.536090   -0.654394
     42          1           0       -3.541785   -3.017325   -0.470499
     43          1           0       -2.429549   -2.401510   -1.731829
     44          8           0       -1.503935   -3.266522   -0.077691
     45          1           0       -1.397625   -4.102338   -0.536054
 ---------------------------------------------------------------------
 Rotational constants (GHZ):           0.3992252           0.1611026           0.1192327
 Leave Link  202 at Thu Mar 16 19:15:01 2023, MaxMem=   262144000 cpu:               0.3 elap:               0.1
 (Enter /dragofs/sw/campus/0.2/software/gaussian/16.gaussian/gaussian/g16_legacy/l301.exe)
 Standard basis: 6-311G(d,p) (5D, 7F)
 Ernie: Thresh=  0.10000D-02 Tol=  0.10000D-05 Strict=F.
 There are   569 symmetry adapted cartesian basis functions of A   symmetry.
 There are   546 symmetry adapted basis functions of A   symmetry.
   546 basis functions,   912 primitive gaussians,   569 cartesian basis functions
    91 alpha electrons       91 beta electrons
       nuclear repulsion energy      2329.4017167654 Hartrees.
 IExCor= 4336 DFT=T Ex+Corr=M062X ExCW=0 ScaHFX=  0.540000
 ScaDFX=  1.000000  1.000000  1.000000  1.000000 ScalE2=  1.000000  1.000000
 IRadAn=      5 IRanWt=     -1 IRanGd=            0 ICorTp=0 IEmpDi=  4
 NAtoms=   45 NActive=   45 NUniq=   45 SFac= 1.00D+00 NAtFMM=   60 NAOKFM=F Big=F
 Integral buffers will be    131072 words long.
 Raffenetti 2 integral format.
 Two-electron integral symmetry is turned on.
 Leave Link  301 at Thu Mar 16 19:15:01 2023, MaxMem=   262144000 cpu:               0.5 elap:               0.1
 (Enter /dragofs/sw/campus/0.2/software/gaussian/16.gaussian/gaussian/g16_legacy/l302.exe)
 NPDir=0 NMtPBC=     1 NCelOv=     1 NCel=       1 NClECP=     1 NCelD=      1
         NCelK=      1 NCelE2=     1 NClLst=     1 CellRange=     0.0.
 One-electron integrals computed using PRISM.
 One-electron integral symmetry used in STVInt
 NBasis=   546 RedAO= T EigKep=  6.67D-04  NBF=   546
 NBsUse=   546 1.00D-06 EigRej= -1.00D+00 NBFU=   546
 Precomputing XC quadrature grid using
 IXCGrd= 4 IRadAn=           5 IRanWt=          -1 IRanGd=           0 AccXCQ= 0.00D+00.
 Generated NRdTot=       0 NPtTot=           0 NUsed=           0 NTot=          32
 NSgBfM=   557   556   556   557   557 MxSgAt=    45 MxSgA2=    45.
 Leave Link  302 at Thu Mar 16 19:15:04 2023, MaxMem=   262144000 cpu:              24.6 elap:               3.6
 (Enter /dragofs/sw/campus/0.2/software/gaussian/16.gaussian/gaussian/g16_legacy/l303.exe)
 DipDrv:  MaxL=1.
 Leave Link  303 at Thu Mar 16 19:15:05 2023, MaxMem=   262144000 cpu:               0.9 elap:               0.2
 (Enter /dragofs/sw/campus/0.2/software/gaussian/16.gaussian/gaussian/g16_legacy/l401.exe)
 ExpMin= 1.03D-01 ExpMax= 8.59D+03 ExpMxC= 1.30D+03 IAcc=3 IRadAn=         5 AccDes= 0.00D+00
 Harris functional with IExCor= 1009 and IRadAn=       5 diagonalized for initial guess.
 HarFok:  IExCor= 1009 AccDes= 0.00D+00 IRadAn=         5 IDoV= 1 UseB2=F ITyADJ=14
 ICtDFT=  3500011 ScaDFX=  1.000000  1.000000  1.000000  1.000000
 FoFCou: FMM=F IPFlag=           0 FMFlag=      100000 FMFlg1=           0
         NFxFlg=           0 DoJE=T BraDBF=F KetDBF=T FulRan=T
         wScrn=  0.000000 ICntrl=       500 IOpCl=  0 I1Cent=   200000004 NGrid=           0
         NMat0=    1 NMatS0=      1 NMatT0=    0 NMatD0=    1 NMtDS0=    0 NMtDT0=    0
 Petite list used in FoFCou.
 Harris En= -1297.12006281513    
 JPrj=0 DoOrth=F DoCkMO=F.
 Leave Link  401 at Thu Mar 16 19:15:10 2023, MaxMem=   262144000 cpu:              42.2 elap:               5.8
 (Enter /dragofs/sw/campus/0.2/software/gaussian/16.gaussian/gaussian/g16_legacy/l502.exe)
 Integral symmetry usage will be decided dynamically.
 Closed shell SCF:
 Using DIIS extrapolation, IDIIS=  1040.
 NGot=   262144000 LenX=   261486196 LenY=   261161866
 Requested convergence on RMS density matrix=1.00D-08 within 128 cycles.
 Requested convergence on MAX density matrix=1.00D-06.
 Requested convergence on             energy=1.00D-06.
 No special actions if energy rises.
 Fock matrices will be formed incrementally for  20 cycles.
 Integral accuracy reduced to 1.0D-05 until final iterations.

 Cycle   1  Pass 0  IDiag  1:
 FoFJK:  IHMeth= 1 ICntrl=       0 DoSepK=F KAlg= 0 I1Cent=           0 FoldK=F
 IRaf= 740000000 NMat=       1 IRICut=       1 DoRegI=T DoRafI=F ISym2E= 0 IDoP0=0 IntGTp=1.
 FoFCou: FMM=F IPFlag=           0 FMFlag=      100000 FMFlg1=           0
         NFxFlg=           0 DoJE=F BraDBF=F KetDBF=F FulRan=T
         wScrn=  0.000000 ICntrl=         0 IOpCl=  0 I1Cent=           0 NGrid=           0
         NMat0=    1 NMatS0=      1 NMatT0=    0 NMatD0=    1 NMtDS0=    0 NMtDT0=    0
 Symmetry not used in FoFCou.
 E= -1297.34523234253    
 DIIS: error= 1.75D-02 at cycle   1 NSaved=   1.
 NSaved= 1 IEnMin= 1 EnMin= -1297.34523234253     IErMin= 1 ErrMin= 1.75D-02
 ErrMax= 1.75D-02  0.00D+00 EMaxC= 1.00D-01 BMatC= 8.45D-01 BMatP= 8.45D-01
 IDIUse=3 WtCom= 8.25D-01 WtEn= 1.75D-01
 Coeff-Com:  0.100D+01
 Coeff-En:   0.100D+01
 Coeff:      0.100D+01
 Gap=     0.432 Goal=   None    Shift=    0.000
 GapD=    0.432 DampG=2.000 DampE=0.500 DampFc=1.0000 IDamp=-1.
 RMSDP=2.47D-03 MaxDP=1.91D-01              OVMax= 1.06D-01

 Cycle   2  Pass 0  IDiag  1:
 RMSU=  2.46D-03    CP:  1.02D+00
 E= -1297.44006616626     Delta-E=       -0.094833823733 Rises=F Damp=F
 DIIS: error= 1.69D-02 at cycle   2 NSaved=   2.
 NSaved= 2 IEnMin= 2 EnMin= -1297.44006616626     IErMin= 2 ErrMin= 1.69D-02
 ErrMax= 1.69D-02  0.00D+00 EMaxC= 1.00D-01 BMatC= 5.87D-01 BMatP= 8.45D-01
 IDIUse=3 WtCom= 8.31D-01 WtEn= 1.69D-01
 Coeff-Com:  0.450D+00 0.550D+00
 Coeff-En:   0.439D+00 0.561D+00
 Coeff:      0.448D+00 0.552D+00
 Gap=     0.392 Goal=   None    Shift=    0.000
 RMSDP=1.38D-03 MaxDP=9.83D-02 DE=-9.48D-02 OVMax= 5.88D-02

 Cycle   3  Pass 0  IDiag  1:
 RMSU=  4.44D-04    CP:  1.01D+00  4.72D-01
 E= -1297.81561170301     Delta-E=       -0.375545536746 Rises=F Damp=F
 DIIS: error= 3.35D-03 at cycle   3 NSaved=   3.
 NSaved= 3 IEnMin= 3 EnMin= -1297.81561170301     IErMin= 3 ErrMin= 3.35D-03
 ErrMax= 3.35D-03  0.00D+00 EMaxC= 1.00D-01 BMatC= 2.16D-02 BMatP= 5.87D-01
 IDIUse=3 WtCom= 9.67D-01 WtEn= 3.35D-02
 Coeff-Com:  0.627D-01 0.186D+00 0.751D+00
 Coeff-En:   0.000D+00 0.000D+00 0.100D+01
 Coeff:      0.606D-01 0.180D+00 0.759D+00
 Gap=     0.386 Goal=   None    Shift=    0.000
 RMSDP=2.56D-04 MaxDP=1.31D-02 DE=-3.76D-01 OVMax= 1.28D-02

 Cycle   4  Pass 0  IDiag  1:
 RMSU=  1.83D-04    CP:  1.01D+00  5.24D-01  7.25D-01
 E= -1297.82794454175     Delta-E=       -0.012332838745 Rises=F Damp=F
 DIIS: error= 1.09D-03 at cycle   4 NSaved=   4.
 NSaved= 4 IEnMin= 4 EnMin= -1297.82794454175     IErMin= 4 ErrMin= 1.09D-03
 ErrMax= 1.09D-03  0.00D+00 EMaxC= 1.00D-01 BMatC= 2.61D-03 BMatP= 2.16D-02
 IDIUse=3 WtCom= 9.89D-01 WtEn= 1.09D-02
 Coeff-Com:  0.287D-02 0.491D-01 0.350D+00 0.598D+00
 Coeff-En:   0.000D+00 0.000D+00 0.473D-01 0.953D+00
 Coeff:      0.284D-02 0.485D-01 0.347D+00 0.602D+00
 Gap=     0.378 Goal=   None    Shift=    0.000
 RMSDP=9.85D-05 MaxDP=4.19D-03 DE=-1.23D-02 OVMax= 4.57D-03

 Cycle   5  Pass 0  IDiag  1:
 RMSU=  3.56D-05    CP:  1.01D+00  5.18D-01  8.15D-01  5.58D-01
 E= -1297.83023543931     Delta-E=       -0.002290897558 Rises=F Damp=F
 DIIS: error= 1.45D-04 at cycle   5 NSaved=   5.
 NSaved= 5 IEnMin= 5 EnMin= -1297.83023543931     IErMin= 5 ErrMin= 1.45D-04
 ErrMax= 1.45D-04  0.00D+00 EMaxC= 1.00D-01 BMatC= 3.62D-05 BMatP= 2.61D-03
 IDIUse=3 WtCom= 9.99D-01 WtEn= 1.45D-03
 Coeff-Com: -0.187D-02 0.570D-02 0.581D-01 0.161D+00 0.777D+00
 Coeff-En:   0.000D+00 0.000D+00 0.000D+00 0.000D+00 0.100D+01
 Coeff:     -0.186D-02 0.569D-02 0.580D-01 0.161D+00 0.777D+00
 Gap=     0.377 Goal=   None    Shift=    0.000
 RMSDP=1.42D-05 MaxDP=6.69D-04 DE=-2.29D-03 OVMax= 5.69D-04

 Cycle   6  Pass 0  IDiag  1:
 RMSU=  9.45D-06    CP:  1.01D+00  5.20D-01  8.16D-01  6.05D-01  8.46D-01
 E= -1297.83026068441     Delta-E=       -0.000025245097 Rises=F Damp=F
 DIIS: error= 4.49D-05 at cycle   6 NSaved=   6.
 NSaved= 6 IEnMin= 6 EnMin= -1297.83026068441     IErMin= 6 ErrMin= 4.49D-05
 ErrMax= 4.49D-05  0.00D+00 EMaxC= 1.00D-01 BMatC= 5.16D-06 BMatP= 3.62D-05
 IDIUse=1 WtCom= 1.00D+00 WtEn= 0.00D+00
 Coeff-Com: -0.977D-03 0.318D-03 0.989D-02 0.458D-01 0.340D+00 0.605D+00
 Coeff:     -0.977D-03 0.318D-03 0.989D-02 0.458D-01 0.340D+00 0.605D+00
 Gap=     0.378 Goal=   None    Shift=    0.000
 RMSDP=4.20D-06 MaxDP=2.57D-04 DE=-2.52D-05 OVMax= 2.29D-04

 Initial convergence to 1.0D-05 achieved.  Increase integral accuracy.
 Cycle   7  Pass 1  IDiag  1:
 E= -1297.83016062429     Delta-E=        0.000100060111 Rises=F Damp=F
 DIIS: error= 2.92D-05 at cycle   1 NSaved=   1.
 NSaved= 1 IEnMin= 1 EnMin= -1297.83016062429     IErMin= 1 ErrMin= 2.92D-05
 ErrMax= 2.92D-05  0.00D+00 EMaxC= 1.00D-01 BMatC= 1.20D-06 BMatP= 1.20D-06
 IDIUse=1 WtCom= 1.00D+00 WtEn= 0.00D+00
 Coeff-Com:  0.100D+01
 Coeff:      0.100D+01
 Gap=     0.378 Goal=   None    Shift=    0.000
 RMSDP=4.20D-06 MaxDP=2.57D-04 DE= 1.00D-04 OVMax= 1.65D-04

 Cycle   8  Pass 1  IDiag  1:
 RMSU=  1.43D-05    CP:  1.00D+00
 E= -1297.83016124180     Delta-E=       -0.000000617506 Rises=F Damp=F
 DIIS: error= 2.40D-05 at cycle   2 NSaved=   2.
 NSaved= 2 IEnMin= 2 EnMin= -1297.83016124180     IErMin= 2 ErrMin= 2.40D-05
 ErrMax= 2.40D-05  0.00D+00 EMaxC= 1.00D-01 BMatC= 7.27D-07 BMatP= 1.20D-06
 IDIUse=1 WtCom= 1.00D+00 WtEn= 0.00D+00
 Coeff-Com:  0.419D+00 0.581D+00
 Coeff:      0.419D+00 0.581D+00
 Gap=     0.378 Goal=   None    Shift=    0.000
 RMSDP=1.58D-06 MaxDP=1.09D-04 DE=-6.18D-07 OVMax= 9.41D-05

 Cycle   9  Pass 1  IDiag  1:
 RMSU=  1.58D-06    CP:  1.00D+00  1.01D+00
 E= -1297.83016166066     Delta-E=       -0.000000418861 Rises=F Damp=F
 DIIS: error= 8.56D-06 at cycle   3 NSaved=   3.
 NSaved= 3 IEnMin= 3 EnMin= -1297.83016166066     IErMin= 3 ErrMin= 8.56D-06
 ErrMax= 8.56D-06  0.00D+00 EMaxC= 1.00D-01 BMatC= 9.66D-08 BMatP= 7.27D-07
 IDIUse=1 WtCom= 1.00D+00 WtEn= 0.00D+00
 Coeff-Com: -0.252D-01 0.257D+00 0.768D+00
 Coeff:     -0.252D-01 0.257D+00 0.768D+00
 Gap=     0.378 Goal=   None    Shift=    0.000
 RMSDP=5.48D-07 MaxDP=2.90D-05 DE=-4.19D-07 OVMax= 2.85D-05

 Cycle  10  Pass 1  IDiag  1:
 RMSU=  2.67D-07    CP:  1.00D+00  1.03D+00  7.60D-01
 E= -1297.83016172641     Delta-E=       -0.000000065748 Rises=F Damp=F
 DIIS: error= 8.09D-07 at cycle   4 NSaved=   4.
 NSaved= 4 IEnMin= 4 EnMin= -1297.83016172641     IErMin= 4 ErrMin= 8.09D-07
 ErrMax= 8.09D-07  0.00D+00 EMaxC= 1.00D-01 BMatC= 1.05D-09 BMatP= 9.66D-08
 IDIUse=1 WtCom= 1.00D+00 WtEn= 0.00D+00
 Coeff-Com: -0.133D-01 0.701D-01 0.235D+00 0.708D+00
 Coeff:     -0.133D-01 0.701D-01 0.235D+00 0.708D+00
 Gap=     0.378 Goal=   None    Shift=    0.000
 RMSDP=8.24D-08 MaxDP=4.15D-06 DE=-6.57D-08 OVMax= 3.89D-06

 Cycle  11  Pass 1  IDiag  1:
 RMSU=  7.82D-08    CP:  1.00D+00  1.03D+00  7.73D-01  9.50D-01
 E= -1297.83016172745     Delta-E=       -0.000000001036 Rises=F Damp=F
 DIIS: error= 3.29D-07 at cycle   5 NSaved=   5.
 NSaved= 5 IEnMin= 5 EnMin= -1297.83016172745     IErMin= 5 ErrMin= 3.29D-07
 ErrMax= 3.29D-07  0.00D+00 EMaxC= 1.00D-01 BMatC= 1.94D-10 BMatP= 1.05D-09
 IDIUse=1 WtCom= 1.00D+00 WtEn= 0.00D+00
 Coeff-Com: -0.103D-02-0.120D-01-0.283D-01 0.266D+00 0.775D+00
 Coeff:     -0.103D-02-0.120D-01-0.283D-01 0.266D+00 0.775D+00
 Gap=     0.378 Goal=   None    Shift=    0.000
 RMSDP=3.00D-08 MaxDP=1.41D-06 DE=-1.04D-09 OVMax= 1.72D-06

 Cycle  12  Pass 1  IDiag  1:
 RMSU=  1.95D-08    CP:  1.00D+00  1.03D+00  7.75D-01  1.03D+00  9.53D-01
 E= -1297.83016172758     Delta-E=       -0.000000000130 Rises=F Damp=F
 DIIS: error= 1.54D-07 at cycle   6 NSaved=   6.
 NSaved= 6 IEnMin= 6 EnMin= -1297.83016172758     IErMin= 6 ErrMin= 1.54D-07
 ErrMax= 1.54D-07  0.00D+00 EMaxC= 1.00D-01 BMatC= 2.08D-11 BMatP= 1.94D-10
 IDIUse=1 WtCom= 1.00D+00 WtEn= 0.00D+00
 Coeff-Com:  0.935D-03-0.122D-01-0.367D-01 0.402D-01 0.317D+00 0.690D+00
 Coeff:      0.935D-03-0.122D-01-0.367D-01 0.402D-01 0.317D+00 0.690D+00
 Gap=     0.378 Goal=   None    Shift=    0.000
 RMSDP=9.39D-09 MaxDP=5.48D-07 DE=-1.30D-10 OVMax= 6.09D-07

 SCF Done:  E(RM062X) =  -1297.83016173     A.U. after   12 cycles
            NFock= 12  Conv=0.94D-08     -V/T= 2.0029
 KE= 1.294095255946D+03 PE=-7.707008982561D+03 EE= 2.785681848123D+03
 Leave Link  502 at Thu Mar 16 19:18:18 2023, MaxMem=   262144000 cpu:            1484.9 elap:             187.2
 (Enter /dragofs/sw/campus/0.2/software/gaussian/16.gaussian/gaussian/g16_legacy/l601.exe)
 Copying SCF densities to generalized density rwf, IOpCl= 0 IROHF=0.

 **********************************************************************

            Population analysis using the SCF density.

 **********************************************************************

 Orbital symmetries:
       Occupied  (A) (A) (A) (A) (A) (A) (A) (A) (A) (A) (A) (A)
                 (A) (A) (A) (A) (A) (A) (A) (A) (A) (A) (A) (A)
                 (A) (A) (A) (A) (A) (A) (A) (A) (A) (A) (A) (A)
                 (A) (A) (A) (A) (A) (A) (A) (A) (A) (A) (A) (A)
                 (A) (A) (A) (A) (A) (A) (A) (A) (A) (A) (A) (A)
                 (A) (A) (A) (A) (A) (A) (A) (A) (A) (A) (A) (A)
                 (A) (A) (A) (A) (A) (A) (A) (A) (A) (A) (A) (A)
                 (A) (A) (A) (A) (A) (A) (A)
       Virtual   (A) (A) (A) (A) (A) (A) (A) (A) (A) (A) (A) (A)
                 (A) (A) (A) (A) (A) (A) (A) (A) (A) (A) (A) (A)
                 (A) (A) (A) (A) (A) (A) (A) (A) (A) (A) (A) (A)
                 (A) (A) (A) (A) (A) (A) (A) (A) (A) (A) (A) (A)
                 (A) (A) (A) (A) (A) (A) (A) (A) (A) (A) (A) (A)
                 (A) (A) (A) (A) (A) (A) (A) (A) (A) (A) (A) (A)
                 (A) (A) (A) (A) (A) (A) (A) (A) (A) (A) (A) (A)
                 (A) (A) (A) (A) (A) (A) (A) (A) (A) (A) (A) (A)
                 (A) (A) (A) (A) (A) (A) (A) (A) (A) (A) (A) (A)
                 (A) (A) (A) (A) (A) (A) (A) (A) (A) (A) (A) (A)
                 (A) (A) (A) (A) (A) (A) (A) (A) (A) (A) (A) (A)
                 (A) (A) (A) (A) (A) (A) (A) (A) (A) (A) (A) (A)
                 (A) (A) (A) (A) (A) (A) (A) (A) (A) (A) (A) (A)
                 (A) (A) (A) (A) (A) (A) (A) (A) (A) (A) (A) (A)
                 (A) (A) (A) (A) (A) (A) (A) (A) (A) (A) (A) (A)
                 (A) (A) (A) (A) (A) (A) (A) (A) (A) (A) (A) (A)
                 (A) (A) (A) (A) (A) (A) (A) (A) (A) (A) (A) (A)
                 (A) (A) (A) (A) (A) (A) (A) (A) (A) (A) (A) (A)
                 (A) (A) (A) (A) (A) (A) (A) (A) (A) (A) (A) (A)
                 (A) (A) (A) (A) (A) (A) (A) (A) (A) (A) (A) (A)
                 (A) (A) (A) (A) (A) (A) (A) (A) (A) (A) (A) (A)
                 (A) (A) (A) (A) (A) (A) (A) (A) (A) (A) (A) (A)
                 (A) (A) (A) (A) (A) (A) (A) (A) (A) (A) (A) (A)
                 (A) (A) (A) (A) (A) (A) (A) (A) (A) (A) (A) (A)
                 (A) (A) (A) (A) (A) (A) (A) (A) (A) (A) (A) (A)
                 (A) (A) (A) (A) (A) (A) (A) (A) (A) (A) (A) (A)
                 (A) (A) (A) (A) (A) (A) (A) (A) (A) (A) (A) (A)
                 (A) (A) (A) (A) (A) (A) (A) (A) (A) (A) (A) (A)
                 (A) (A) (A) (A) (A) (A) (A) (A) (A) (A) (A) (A)
                 (A) (A) (A) (A) (A) (A) (A) (A) (A) (A) (A) (A)
                 (A) (A) (A) (A) (A) (A) (A) (A) (A) (A) (A) (A)
                 (A) (A) (A) (A) (A) (A) (A) (A) (A) (A) (A) (A)
                 (A) (A) (A) (A) (A) (A) (A) (A) (A) (A) (A) (A)
                 (A) (A) (A) (A) (A) (A) (A) (A) (A) (A) (A) (A)
                 (A) (A) (A) (A) (A) (A) (A) (A) (A) (A) (A) (A)
                 (A) (A) (A) (A) (A) (A) (A) (A) (A) (A) (A) (A)
                 (A) (A) (A) (A) (A) (A) (A) (A) (A) (A) (A) (A)
                 (A) (A) (A) (A) (A) (A) (A) (A) (A) (A) (A)
 The electronic state is 1-A.
 Alpha  occ. eigenvalues --  -19.65668 -19.65252 -19.64897 -19.64049 -19.63739
 Alpha  occ. eigenvalues --  -19.63588 -19.63273 -19.62670 -19.61609 -19.61513
 Alpha  occ. eigenvalues --  -19.60515 -10.65991 -10.64382 -10.61421 -10.60813
 Alpha  occ. eigenvalues --  -10.60769 -10.60674 -10.60668 -10.60630 -10.59957
 Alpha  occ. eigenvalues --  -10.59742 -10.59253 -10.58312  -1.23369  -1.21122
 Alpha  occ. eigenvalues --   -1.18568  -1.18344  -1.17009  -1.16404  -1.16124
 Alpha  occ. eigenvalues --   -1.15198  -1.14951  -1.13465  -1.12916  -0.91954
 Alpha  occ. eigenvalues --   -0.90793  -0.88153  -0.87074  -0.80642  -0.78287
 Alpha  occ. eigenvalues --   -0.76193  -0.72626  -0.71973  -0.70887  -0.69934
 Alpha  occ. eigenvalues --   -0.68704  -0.65408  -0.63894  -0.63383  -0.62234
 Alpha  occ. eigenvalues --   -0.61580  -0.61130  -0.60277  -0.59025  -0.58204
 Alpha  occ. eigenvalues --   -0.57344  -0.56291  -0.56007  -0.55028  -0.54218
 Alpha  occ. eigenvalues --   -0.53477  -0.53114  -0.52229  -0.51871  -0.50264
 Alpha  occ. eigenvalues --   -0.49860  -0.49457  -0.48643  -0.47487  -0.47002
 Alpha  occ. eigenvalues --   -0.46175  -0.45547  -0.44969  -0.44414  -0.42891
 Alpha  occ. eigenvalues --   -0.42492  -0.41918  -0.41438  -0.41078  -0.40408
 Alpha  occ. eigenvalues --   -0.39002  -0.38535  -0.38192  -0.37477  -0.37067
 Alpha  occ. eigenvalues --   -0.36334  -0.35959  -0.34835  -0.34542  -0.34169
 Alpha  occ. eigenvalues --   -0.33331
 Alpha virt. eigenvalues --    0.04426   0.05242   0.06337   0.07006   0.07522
 Alpha virt. eigenvalues --    0.08650   0.09144   0.09805   0.10687   0.11040
 Alpha virt. eigenvalues --    0.11542   0.12404   0.12949   0.13186   0.14304
 Alpha virt. eigenvalues --    0.14493   0.14815   0.15377   0.15923   0.16962
 Alpha virt. eigenvalues --    0.17505   0.18428   0.18733   0.19168   0.20157
 Alpha virt. eigenvalues --    0.21254   0.22110   0.22679   0.23937   0.24233
 Alpha virt. eigenvalues --    0.25191   0.25503   0.26370   0.26797   0.27477
 Alpha virt. eigenvalues --    0.27898   0.30070   0.30839   0.31042   0.32305
 Alpha virt. eigenvalues --    0.33238   0.33849   0.35392   0.35808   0.36343
 Alpha virt. eigenvalues --    0.37963   0.38455   0.40166   0.41213   0.41403
 Alpha virt. eigenvalues --    0.42199   0.42531   0.42837   0.43196   0.44050
 Alpha virt. eigenvalues --    0.45925   0.46145   0.46545   0.47525   0.47658
 Alpha virt. eigenvalues --    0.48352   0.48839   0.49675   0.50123   0.50955
 Alpha virt. eigenvalues --    0.51548   0.52207   0.52997   0.53177   0.53795
 Alpha virt. eigenvalues --    0.54429   0.55436   0.55974   0.56335   0.56914
 Alpha virt. eigenvalues --    0.57292   0.58229   0.58732   0.59039   0.59335
 Alpha virt. eigenvalues --    0.60004   0.60381   0.61399   0.61559   0.62546
 Alpha virt. eigenvalues --    0.63272   0.63325   0.64262   0.64530   0.64959
 Alpha virt. eigenvalues --    0.65080   0.65948   0.66344   0.67574   0.67827
 Alpha virt. eigenvalues --    0.68191   0.68376   0.69334   0.69506   0.70848
 Alpha virt. eigenvalues --    0.71122   0.73624   0.75401   0.77150   0.78008
 Alpha virt. eigenvalues --    0.82212   0.82818   0.84953   0.86348   0.87238
 Alpha virt. eigenvalues --    0.88611   0.89108   0.89949   0.91449   0.92445
 Alpha virt. eigenvalues --    0.92805   0.93970   0.94364   0.94748   0.95403
 Alpha virt. eigenvalues --    0.95967   0.96890   0.97256   0.98595   0.99506
 Alpha virt. eigenvalues --    1.00083   1.00745   1.01891   1.03448   1.04213
 Alpha virt. eigenvalues --    1.04821   1.05534   1.05560   1.06322   1.08509
 Alpha virt. eigenvalues --    1.09577   1.10354   1.11577   1.12377   1.13815
 Alpha virt. eigenvalues --    1.15000   1.15800   1.16427   1.16911   1.17509
 Alpha virt. eigenvalues --    1.18247   1.19735   1.20772   1.21850   1.23662
 Alpha virt. eigenvalues --    1.24206   1.25195   1.26391   1.27968   1.28754
 Alpha virt. eigenvalues --    1.29569   1.30637   1.33714   1.34698   1.35754
 Alpha virt. eigenvalues --    1.36399   1.38611   1.40201   1.40712   1.42139
 Alpha virt. eigenvalues --    1.42962   1.43574   1.44730   1.45176   1.45794
 Alpha virt. eigenvalues --    1.45952   1.47362   1.49257   1.49593   1.50932
 Alpha virt. eigenvalues --    1.51301   1.51604   1.51941   1.52821   1.53559
 Alpha virt. eigenvalues --    1.54179   1.54347   1.55410   1.55836   1.56251
 Alpha virt. eigenvalues --    1.56564   1.57869   1.58478   1.59030   1.59263
 Alpha virt. eigenvalues --    1.59540   1.60415   1.60733   1.62141   1.62410
 Alpha virt. eigenvalues --    1.62735   1.63193   1.65323   1.65519   1.66559
 Alpha virt. eigenvalues --    1.67233   1.68118   1.68363   1.69243   1.69445
 Alpha virt. eigenvalues --    1.70574   1.71203   1.72128   1.73840   1.74427
 Alpha virt. eigenvalues --    1.75035   1.75800   1.76773   1.78546   1.79537
 Alpha virt. eigenvalues --    1.80708   1.81199   1.81735   1.82167   1.83406
 Alpha virt. eigenvalues --    1.84578   1.85222   1.85411   1.86642   1.88428
 Alpha virt. eigenvalues --    1.89443   1.90019   1.92239   1.93279   1.93787
 Alpha virt. eigenvalues --    1.93830   1.95881   1.96228   1.97541   1.98075
 Alpha virt. eigenvalues --    1.98955   1.99325   2.00489   2.02330   2.03694
 Alpha virt. eigenvalues --    2.04107   2.05957   2.06768   2.07632   2.08719
 Alpha virt. eigenvalues --    2.09336   2.10686   2.11123   2.11548   2.12296
 Alpha virt. eigenvalues --    2.13006   2.14466   2.15006   2.15314   2.16625
 Alpha virt. eigenvalues --    2.17444   2.18136   2.19112   2.19872   2.22141
 Alpha virt. eigenvalues --    2.23113   2.23695   2.25109   2.26342   2.27305
 Alpha virt. eigenvalues --    2.28161   2.29679   2.31405   2.32960   2.34244
 Alpha virt. eigenvalues --    2.35083   2.36479   2.40843   2.41680   2.43459
 Alpha virt. eigenvalues --    2.44774   2.47535   2.47716   2.49450   2.50537
 Alpha virt. eigenvalues --    2.52097   2.52638   2.53133   2.53921   2.54587
 Alpha virt. eigenvalues --    2.55449   2.56764   2.57544   2.59174   2.60149
 Alpha virt. eigenvalues --    2.60910   2.61115   2.61633   2.64515   2.65759
 Alpha virt. eigenvalues --    2.68714   2.75417   2.78157   2.78436   2.79448
 Alpha virt. eigenvalues --    2.81227   2.81443   2.82544   2.83025   2.84381
 Alpha virt. eigenvalues --    2.85520   2.86556   2.88291   2.90445   2.92026
 Alpha virt. eigenvalues --    2.92788   2.94467   2.95474   2.96187   2.97168
 Alpha virt. eigenvalues --    2.99168   2.99847   3.00882   3.02442   3.03925
 Alpha virt. eigenvalues --    3.04414   3.05262   3.07593   3.09534   3.11660
 Alpha virt. eigenvalues --    3.12057   3.12679   3.13285   3.14164   3.16705
 Alpha virt. eigenvalues --    3.18281   3.19235   3.19988   3.20203   3.20680
 Alpha virt. eigenvalues --    3.21321   3.21923   3.22526   3.23600   3.23881
 Alpha virt. eigenvalues --    3.25296   3.25674   3.26729   3.27714   3.29671
 Alpha virt. eigenvalues --    3.30722   3.31262   3.32883   3.34803   3.35349
 Alpha virt. eigenvalues --    3.35698   3.36327   3.37113   3.39322   3.40317
 Alpha virt. eigenvalues --    3.41194   3.42613   3.44270   3.45181   3.47097
 Alpha virt. eigenvalues --    3.48891   3.52009   3.55094   3.57615   3.59648
[...]
    37  C   -0.000000  -0.000007   0.000000  -0.000000  -0.000000  -0.001838
    38  H    0.000000  -0.000001   0.000000   0.000000   0.000000   0.000735
    39  O   -0.000000   0.000000  -0.000000  -0.000000   0.000000  -0.000253
    40  H   -0.000000   0.000000  -0.000000   0.000000   0.000000  -0.000350
    41  C    0.000000   0.000000  -0.000000  -0.000000  -0.000000   0.004518
    42  H   -0.000000  -0.000000  -0.000000   0.000000   0.000000  -0.000230
    43  H   -0.000000  -0.000000   0.000000   0.000000  -0.000000  -0.001009
    44  O   -0.000000   0.000000  -0.000000   0.000000   0.000000  -0.000924
    45  H    0.000000   0.000000   0.000000  -0.000000  -0.000000   0.000118
              25         26         27         28         29         30
     1  C   -0.000031  -0.000002  -0.000001   0.000006   0.000000  -0.000000
     2  H   -0.000020   0.000001   0.000000  -0.000008   0.000001  -0.000001
     3  O    0.000000   0.000000   0.000000   0.000000   0.000000  -0.000000
     4  H   -0.000001   0.000000   0.000000   0.000000  -0.000000  -0.000000
     5  C    0.000726   0.000015   0.000007  -0.000841   0.000018  -0.000070
     6  H    0.000147   0.000016   0.000003  -0.000117  -0.000012   0.000090
     7  O   -0.000005   0.000000   0.000000   0.000000   0.000001   0.000001
     8  C    0.000154   0.000030   0.000010   0.000267   0.000034  -0.000002
     9  H    0.000030   0.000004   0.000008  -0.000008   0.000004   0.000000
    10  O   -0.000005  -0.000001  -0.000000  -0.000002  -0.000000   0.000000
    11  H   -0.000023  -0.000034  -0.000020   0.000000  -0.000003   0.000000
    12  C   -0.004128   0.000047  -0.000226   0.009112   0.000859  -0.000091
    13  H    0.002193  -0.000576   0.000171   0.002975   0.000041   0.000119
    14  O    0.007094   0.004320   0.002266  -0.012972   0.000828  -0.000018
    15  H   -0.002618  -0.008101  -0.001599   0.011120  -0.000047  -0.000044
    16  C   -0.015944  -0.000829  -0.000245  -0.002865   0.002919  -0.001041
    17  H    0.009274   0.000165   0.000076  -0.000796   0.001143   0.000147
    18  O   -0.047910   0.003994  -0.000122  -0.051554  -0.036657   0.001485
    19  C   -0.000239  -0.000001  -0.000001   0.000031  -0.000151  -0.000028
    20  H    0.000237   0.000007  -0.000000   0.000028   0.000134   0.000119
    21  H   -0.000116  -0.000000  -0.000000   0.000004  -0.000022   0.000002
    22  O    0.000001   0.000000  -0.000000   0.000000   0.000000  -0.000000
    23  H   -0.000000  -0.000000  -0.000000  -0.000000  -0.000000  -0.000000
    24  C    0.403800  -0.079002  -0.009410   0.223145   0.177173  -0.044670
    25  H    0.589207   0.001714   0.008944  -0.053102  -0.064607   0.012417
    26  C    0.001714   5.418331   0.388880   0.202375  -0.012594   0.002025
    27  H    0.008944   0.388880   0.547953  -0.040967   0.002420   0.000354
    28  O   -0.053102   0.202375  -0.040967   8.210001  -0.038008   0.003068
    29  C   -0.064607  -0.012594   0.002420  -0.038008   5.309427   0.378650
    30  H    0.012417   0.002025   0.000354   0.003068   0.378650   0.552675
    31  O    0.009203   0.000151  -0.000175   0.001928   0.234886  -0.033870
    32  H   -0.001334  -0.000006   0.000021   0.000290  -0.040925  -0.005103
    33  C   -0.004230  -0.028400  -0.014272  -0.009718   0.224773  -0.048033
    34  H    0.005139  -0.003259   0.005251   0.000737  -0.050648   0.010321
    35  O   -0.000116   0.003350  -0.000091  -0.000081  -0.041722   0.004409
    36  H   -0.000082  -0.000996  -0.000067  -0.000043  -0.011108  -0.001544
    37  C   -0.002896   0.150301  -0.053092  -0.035140  -0.060426  -0.001687
    38  H   -0.000043  -0.044754   0.010495   0.003280   0.001247   0.006010
    39  O   -0.000099  -0.048039   0.009139   0.001393   0.006426  -0.000017
    40  H   -0.000019   0.012132  -0.000783  -0.000246   0.001576  -0.000056
    41  C    0.000734   0.305509  -0.038675  -0.043689  -0.001772  -0.000099
    42  H    0.000081  -0.052107  -0.007102   0.004439  -0.000014   0.000015
    43  H    0.000081  -0.041974   0.011136   0.000644   0.000001   0.000026
    44  O   -0.000186  -0.067402   0.002939   0.001342  -0.000004   0.000006
    45  H   -0.000005   0.012086  -0.000362  -0.000174  -0.000003  -0.000001
              31         32         33         34         35         36
     1  C    0.000000   0.000000   0.000000   0.000000   0.000000  -0.000000
     2  H    0.000000   0.000000   0.000000   0.000000   0.000000   0.000000
     3  O   -0.000000   0.000000  -0.000000  -0.000000   0.000000   0.000000
     4  H   -0.000000  -0.000000   0.000000   0.000000  -0.000000  -0.000000
     5  C   -0.000125  -0.000616  -0.000013  -0.000004   0.000000   0.000000
     6  H   -0.000007  -0.000077   0.000002   0.000000   0.000000   0.000000
     7  O   -0.000000   0.000004  -0.000000   0.000000   0.000000  -0.000000
     8  C   -0.000000  -0.000005  -0.000001  -0.000001   0.000000   0.000000
     9  H    0.000000  -0.000000  -0.000000  -0.000000  -0.000000   0.000000
    10  O    0.000000   0.000000   0.000000   0.000000  -0.000000  -0.000000
    11  H    0.000000   0.000000   0.000000   0.000000  -0.000000  -0.000000
    12  C    0.000019   0.000086   0.000004  -0.000006   0.000000   0.000000
    13  H    0.000000  -0.000011  -0.000012  -0.000005  -0.000000  -0.000000
    14  O   -0.000001  -0.000009  -0.000084  -0.000063   0.000000   0.000000
    15  H   -0.000016   0.000006  -0.000099  -0.000036   0.000001  -0.000000
    16  C   -0.000865  -0.000196  -0.000213   0.000002   0.000001   0.000003
    17  H    0.000136  -0.000341   0.000030  -0.000021  -0.000000  -0.000002
    18  O   -0.002602   0.010144   0.003500  -0.000197  -0.000016  -0.000006
    19  C    0.000011   0.000884   0.000001   0.000000   0.000000   0.000000
    20  H    0.000248   0.002262   0.000043  -0.000001  -0.000000  -0.000003
    21  H    0.000040  -0.000107   0.000000   0.000001   0.000000   0.000000
    22  O    0.000000  -0.000016   0.000000  -0.000000  -0.000000  -0.000000
    23  H   -0.000000   0.000004   0.000000  -0.000000  -0.000000  -0.000000
    24  C   -0.042488  -0.006663  -0.057224   0.001384   0.006548   0.001695
    25  H    0.009203  -0.001334  -0.004230   0.005139  -0.000116  -0.000082
    26  C    0.000151  -0.000006  -0.028400  -0.003259   0.003350  -0.000996
    27  H   -0.000175   0.000021  -0.014272   0.005251  -0.000091  -0.000067
    28  O    0.001928   0.000290  -0.009718   0.000737  -0.000081  -0.000043
    29  C    0.234886  -0.040925   0.224773  -0.050648  -0.041722  -0.011108
    30  H   -0.033870  -0.005103  -0.048033   0.010321   0.004409  -0.001544
    31  O    7.965260   0.326373  -0.045636   0.002623  -0.002260   0.014830
    32  H    0.326373   0.435299   0.009454  -0.000606  -0.000437  -0.000666
    33  C   -0.045636   0.009454   5.261801   0.378972   0.248700  -0.042050
    34  H    0.002623  -0.000606   0.378972   0.567214  -0.036739  -0.004682
    35  O   -0.002260  -0.000437   0.248700  -0.036739   7.965881   0.326029
    36  H    0.014830  -0.000666  -0.042050  -0.004682   0.326029   0.430404
    37  C    0.004440  -0.000561   0.233433  -0.049856  -0.050454   0.012684
    38  H   -0.000183  -0.000011  -0.054462   0.011209   0.003549  -0.000697
    39  O   -0.000015   0.000007  -0.031327   0.006232  -0.003693  -0.000469
    40  H   -0.000023   0.000006  -0.004258  -0.001488   0.016070  -0.000910
    41  C    0.000010  -0.000001   0.007648  -0.000685  -0.000075   0.000025
    42  H    0.000000  -0.000000   0.000364   0.000047  -0.000005   0.000003
    43  H    0.000000   0.000001  -0.000572  -0.000060  -0.000001  -0.000002
    44  O   -0.000000  -0.000000  -0.000118   0.000002   0.000000  -0.000000
    45  H    0.000000  -0.000000   0.000030   0.000001  -0.000000   0.000000
              37         38         39         40         41         42
     1  C   -0.000000   0.000000   0.000000  -0.000000   0.000000  -0.000000
     2  H   -0.000000   0.000000   0.000000  -0.000000  -0.000000  -0.000000
     3  O    0.000000  -0.000000  -0.000000  -0.000000  -0.000000  -0.000000
     4  H    0.000000  -0.000000   0.000000   0.000000   0.000000  -0.000000
     5  C    0.000004  -0.000001   0.000000  -0.000000  -0.000001   0.000000
     6  H   -0.000002  -0.000001   0.000000  -0.000000  -0.000001  -0.000000
     7  O   -0.000000  -0.000000   0.000000   0.000000   0.000000  -0.000000
     8  C    0.000002  -0.000000  -0.000000   0.000000  -0.000023   0.000000
     9  H    0.000000  -0.000000  -0.000000  -0.000000  -0.000001  -0.000000
    10  O   -0.000000   0.000000   0.000000   0.000000  -0.000001  -0.000000
    11  H   -0.000001   0.000000   0.000000  -0.000000   0.000020  -0.000000
    12  C    0.000156  -0.000008  -0.000000   0.000000   0.000406  -0.000001
    13  H    0.000034  -0.000008  -0.000000   0.000000   0.000029   0.000037
    14  O    0.000178   0.000004  -0.000000  -0.000000  -0.000438  -0.000087
    15  H    0.000927  -0.000076  -0.000024   0.000006  -0.005747   0.001223
    16  C   -0.000172   0.000017   0.000000  -0.000000   0.000078  -0.000002
    17  H   -0.000040  -0.000003   0.000000  -0.000000  -0.000005  -0.000000
    18  O   -0.000577  -0.000084   0.000000   0.000000  -0.000204   0.000006
    19  C   -0.000000   0.000000  -0.000000  -0.000000   0.000000  -0.000000
    20  H   -0.000007  -0.000001   0.000000   0.000000   0.000000  -0.000000
    21  H    0.000000   0.000000  -0.000000  -0.000000  -0.000000  -0.000000
    22  O   -0.000000   0.000000  -0.000000   0.000000  -0.000000   0.000000
    23  H   -0.000000   0.000000   0.000000   0.000000  -0.000000   0.000000
    24  C   -0.001838   0.000735  -0.000253  -0.000350   0.004518  -0.000230
    25  H   -0.002896  -0.000043  -0.000099  -0.000019   0.000734   0.000081
    26  C    0.150301  -0.044754  -0.048039   0.012132   0.305509  -0.052107
    27  H   -0.053092   0.010495   0.009139  -0.000783  -0.038675  -0.007102
    28  O   -0.035140   0.003280   0.001393  -0.000246  -0.043689   0.004439
    29  C   -0.060426   0.001247   0.006426   0.001576  -0.001772  -0.000014
    30  H   -0.001687   0.006010  -0.000017  -0.000056  -0.000099   0.000015
    31  O    0.004440  -0.000183  -0.000015  -0.000023   0.000010   0.000000
    32  H   -0.000561  -0.000011   0.000007   0.000006  -0.000001  -0.000000
    33  C    0.233433  -0.054462  -0.031327  -0.004258   0.007648   0.000364
    34  H   -0.049856   0.011209   0.006232  -0.001488  -0.000685   0.000047
    35  O   -0.050454   0.003549  -0.003693   0.016070  -0.000075  -0.000005
    36  H    0.012684  -0.000697  -0.000469  -0.000910   0.000025   0.000003
    37  C    5.287413   0.382984   0.223232  -0.048755  -0.045001  -0.000817
    38  H    0.382984   0.570184  -0.033820  -0.004171  -0.012704  -0.000145
    39  O    0.223232  -0.033820   7.966228   0.322509  -0.002933   0.013243
    40  H   -0.048755  -0.004171   0.322509   0.434036  -0.000215  -0.000261
    41  C   -0.045001  -0.012704  -0.002933  -0.000215   4.796463   0.410324
    42  H   -0.000817  -0.000145   0.013243  -0.000261   0.410324   0.544864
    43  H   -0.002501   0.004997  -0.000224  -0.000061   0.396748  -0.035850
    44  O    0.003423  -0.000134  -0.000007   0.000007   0.263068  -0.030783
    45  H   -0.000589  -0.000008   0.000008  -0.000004  -0.035636  -0.003445
              43         44         45
     1  C   -0.000000  -0.000000   0.000000
     2  H   -0.000000  -0.000001   0.000000
     3  O   -0.000000  -0.000000   0.000000
     4  H   -0.000000   0.000000   0.000000
     5  C   -0.000001   0.000001  -0.000001
     6  H    0.000001  -0.000001  -0.000000
     7  O    0.000000  -0.000000   0.000000
     8  C    0.000000  -0.000037  -0.000034
     9  H   -0.000000  -0.000001  -0.000000
    10  O   -0.000000  -0.000001   0.000015
    11  H   -0.000000   0.000069   0.000052
    12  C   -0.000063  -0.000614   0.000246
    13  H   -0.000054   0.001743  -0.000100
    14  O   -0.000045  -0.009239   0.000480
    15  H    0.000828   0.042694  -0.004121
    16  C    0.000001   0.000008   0.000010
    17  H    0.000000  -0.000000  -0.000000
    18  O   -0.000028   0.000006  -0.000001
    19  C   -0.000000  -0.000000   0.000000
    20  H   -0.000000   0.000000   0.000000
    21  H    0.000000  -0.000000   0.000000
    22  O    0.000000   0.000000  -0.000000
    23  H   -0.000000   0.000000  -0.000000
    24  C   -0.001009  -0.000924   0.000118
    25  H    0.000081  -0.000186  -0.000005
    26  C   -0.041974  -0.067402   0.012086
    27  H    0.011136   0.002939  -0.000362
    28  O    0.000644   0.001342  -0.000174
    29  C    0.000001  -0.000004  -0.000003
    30  H    0.000026   0.000006  -0.000001
    31  O    0.000000  -0.000000   0.000000
    32  H    0.000001  -0.000000  -0.000000
    33  C   -0.000572  -0.000118   0.000030
    34  H   -0.000060   0.000002   0.000001
    35  O   -0.000001   0.000000  -0.000000
    36  H   -0.000002  -0.000000   0.000000
    37  C   -0.002501   0.003423  -0.000589
    38  H    0.004997  -0.000134  -0.000008
    39  O   -0.000224  -0.000007   0.000008
    40  H   -0.000061   0.000007  -0.000004
    41  C    0.396748   0.263068  -0.035636
    42  H   -0.035850  -0.030783  -0.003445
    43  H    0.569312  -0.034253  -0.006187
    44  O   -0.034253   7.959603   0.321267
    45  H   -0.006187   0.321267   0.434782
 Mulliken charges:
               1
     1  C    0.230864
     2  H    0.145980
     3  O   -0.373708
     4  H    0.250976
     5  C   -0.086417
     6  H    0.164023
     7  O   -0.403440
     8  C    0.003744
     9  H    0.133881
    10  O   -0.413292
    11  H    0.262861
    12  C   -0.061866
    13  H    0.169223
    14  O   -0.453069
    15  H    0.300291
    16  C    0.045508
    17  H    0.168581
    18  O   -0.405454
    19  C    0.007708
    20  H    0.133800
    21  H    0.121842
    22  O   -0.416777
    23  H    0.261403
    24  C    0.215013
    25  H    0.146580
    26  C   -0.117379
    27  H    0.177134
    28  O   -0.385853
    29  C    0.016161
    30  H    0.164434
    31  O   -0.431895
    32  H    0.272852
    33  C   -0.028033
    34  H    0.159220
    35  O   -0.438847
    36  H    0.277653
    37  C    0.055198
    38  H    0.156602
    39  O   -0.427499
    40  H    0.275259
    41  C    0.002325
    42  H    0.156203
    43  H    0.139107
    44  O   -0.452474
    45  H    0.281577
 Sum of Mulliken charges =  -0.00000
 Mulliken charges with hydrogens summed into heavy atoms:
               1
     1  C    0.376845
     3  O   -0.122732
     5  C    0.077606
     7  O   -0.403440
     8  C    0.137626
    10  O   -0.150431
    12  C    0.107357
    14  O   -0.152778
    16  C    0.214089
    18  O   -0.405454
    19  C    0.263350
    22  O   -0.155373
    24  C    0.361593
    26  C    0.059755
    28  O   -0.385853
    29  C    0.180595
    31  O   -0.159043
    33  C    0.131187
    35  O   -0.161194
    37  C    0.211800
    39  O   -0.152241
    41  C    0.297635
    44  O   -0.170898
 Electronic spatial extent (au):  <R**2>=           8694.0160
 Charge=              0.0000 electrons
 Dipole moment (field-independent basis, Debye):
    X=             -3.9197    Y=             -1.3918    Z=              0.5033  Tot=              4.1898
 Quadrupole moment (field-independent basis, Debye-Ang):
   XX=           -150.2762   YY=           -134.0895   ZZ=           -133.8748
   XY=              0.8797   XZ=             10.8756   YZ=              7.6138
 Traceless Quadrupole moment (field-independent basis, Debye-Ang):
   XX=            -10.8627   YY=              5.3240   ZZ=              5.5387
   XY=              0.8797   XZ=             10.8756   YZ=              7.6138
 Octapole moment (field-independent basis, Debye-Ang**2):
  XXX=            -73.5783  YYY=            -74.1900  ZZZ=             -1.5155  XYY=            -74.9911
  XXY=             10.0034  XXZ=             42.6267  XZZ=              9.4800  YZZ=            -12.2758
  YYZ=             -5.2207  XYZ=            -14.7219
 Hexadecapole moment (field-independent basis, Debye-Ang**3):
 XXXX=          -7649.5430 YYYY=          -2634.3051 ZZZZ=           -349.1052 XXXY=            -16.7574
 XXXZ=            197.9351 YYYX=            -53.3933 YYYZ=            115.3208 ZZZX=             15.5300
 ZZZY=              8.0732 XXYY=          -1864.4652 XXZZ=          -1220.9342 YYZZ=           -534.4049
 XXYZ=             35.1916 YYXZ=            103.0281 ZZXY=            -21.7358
 N-N= 2.325633453318D+03 E-N=-7.699470726074D+03  KE= 1.294099808301D+03
 No NMR shielding tensors so no spin-rotation constants.
 Leave Link  601 at Thu Mar 16 20:03:19 2023, MaxMem=   262144000 cpu:               2.0 elap:               0.3
 (Enter /dragofs/sw/campus/0.2/software/gaussian/16.gaussian/gaussian/g16_legacy/l9999.exe)
 1\1\GINC-DRAGO31010030\FOpt\RM062X\6-311G(d,p)\C12H22O11\JRAMOS\16-Mar
 -2023\0\\#p opt M062X/6-311g(d,p)\\Optimization 03-DIHEDRAL_PHI_PSI_14
 b/dimer14b_000_010.log\\0,1\C,-3.9094548176,-0.6235942117,0.2630023336
 \H,-3.8048432043,-0.7534491995,1.3473685493\O,-5.2047855903,-0.9637978
 164,-0.055233005\H,-5.2647969456,-1.0702710054,-1.0096049215\C,-2.4436
 735277,1.2359355052,0.3595048916\H,-2.348995986,1.0856290248,1.4453035
 282\O,-3.6948704287,0.7394092142,-0.0811696231\C,-2.8654582383,-1.4380
 371484,-0.4836517821\H,-3.0096609144,-1.2356786416,-1.5589027881\O,-3.
 0409158358,-2.800563206,-0.2013168542\H,-2.2829248175,-3.2421295728,-0
 .600776576\C,-1.444274005,-1.003956685,-0.1208105368\H,-1.2639882046,-
 1.2298038909,0.9377336781\O,-0.5951242191,-1.7772658132,-0.9474957266\
 H,0.1426783087,-2.120298773,-0.4222704199\C,-1.293040088,0.5039054774,
 -0.3314798858\H,-1.306470647,0.707889689,-1.4117273214\O,-0.1167381894
 ,1.0708558451,0.2406770817\C,-2.4670512979,2.725624315,0.0676373729\H,
 -1.5594805586,3.1887109462,0.4545037069\H,-2.5011231227,2.8647870757,-
 1.0226932519\O,-3.5618029119,3.3378456387,0.7014703124\H,-4.3305060084
 ,2.7993320758,0.4840568188\C,1.0949789081,0.5769016648,-0.2067734017\H
 ,1.0430657343,0.3332625965,-1.279929826\C,2.6078920359,-1.1974594369,0
 .065923376\H,2.5441461657,-1.3702573406,-1.0196639468\O,1.4135334232,-
 0.5865206793,0.5292135838\C,2.1653988025,1.6239688443,0.0632852161\H,2
 .1558253881,1.8397524116,1.1396530531\O,1.9661685257,2.7938814304,-0.6
 996162853\H,1.1192954612,3.1692030217,-0.4404513447\C,3.5193348555,1.0
 635604423,-0.3327059069\H,3.5155745815,0.8931355767,-1.4200884854\O,4.
 5757750913,1.9301396244,0.0205341929\H,4.3830214598,2.7883865974,-0.37
 07150692\C,3.7802602076,-0.2680493458,0.3520311185\H,3.8436397164,-0.0
 95349908,1.4362082931\O,4.9581094427,-0.8652847738,-0.1366222797\H,5.6
 428986439,-0.1883179177,-0.1105397524\C,2.702571741,-2.5375482783,0.74
 95919512\H,3.6438895497,-3.0174050862,0.4685548736\H,2.6710675167,-2.3
 866936711,1.834473076\O,1.5762368449,-3.2804532088,0.3019554989\H,1.51
 96821543,-4.1055324071,0.7875654838\\Version=EM64L-G16RevA.03\State=1-
 A\HF=-1297.8326898\RMSD=4.893e-09\RMSF=5.183e-06\Dipole=1.5354768,-0.5
 686419,-0.190306\Quadrupole=-8.1758014,3.9814514,4.1943501,-0.4629058,
 7.9420538,-5.7740337\PG=C01 [X(C12H22O11)]\\@


 IF I AM NOT FOR MYSELF, WHO WILL BE?
 BUT IF I AM ONLY FOR MYSELF, WHAT AM I?
 THOUGH A SEEKER SINCE MY BIRTH,
 HERE IS ALL I'VE LEARNED ON EARTH,
 THIS IS THE GIST OF WHAT I KNOW:
 GIVE ADVICE AND BUY A FOE.

 PRESSED FOR RULES AND VERITIES,
 ALL I RECOLLECT ARE THESE:
 FEED A COLD TO STARVE A FEVER,
 ARGUE WITH NO TRUE-BELIEVER.
 THINK-TOO-LONG IS NEVER-ACT,
 SCRATCH A MYTH AND FIND A FACT.

 STITCH IN TIME SAVES TWENTY STITCHES,
 GIVE THE RICH TO PLEASE THEM, RICHES.
 GIVE TO LOVE YOU HEARTH AND HALL,
 BUT DO NOT GIVE ADVICE AT ALL.

                                  -- HILLEL
 Job cpu time:       0 days  6 hours 17 minutes 26.1 seconds.
 Elapsed time:       0 days  0 hours 48 minutes 18.1 seconds.
 File lengths (MBytes):  RWF=    189 Int=      0 D2E=      0 Chk=     24 Scr=      1
 Normal termination of Gaussian 16 at Thu Mar 16 20:03:19 2023.
