 Entering Gaussian System, Link 0=/dragofs/sw/campus/0.2/software/gaussian/16.gaussian/gaussian/g16_legacy/g16
 Input=dimer14b_000_005_opt.com
 Output=dimer14b_000_005_opt.log
 Initial command:
 /dragofs/sw/campus/0.2/software/gaussian/16.gaussian/gaussian/g16_legacy/l1.exe "/tmp/jramos/82060/Gau-2536784.inp" -scrdir="/tmp/jramos/82060/"
 Entering Link 1 = /dragofs/sw/campus/0.2/software/gaussian/16.gaussian/gaussian/g16_legacy/l1.exe PID=   2536786.
  
 Copyright (c) 1988,1990,1992,1993,1995,1998,2003,2009,2016,
            Gaussian, Inc.  All Rights Reserved.
  
 This is part of the Gaussian(R) 16 program.  It is based on
 the Gaussian(R) 09 system (copyright 2009, Gaussian, Inc.),
 the Gaussian(R) 03 system (copyright 2003, Gaussian, Inc.),
 the Gaussian(R) 98 system (copyright 1998, Gaussian, Inc.),
 the Gaussian(R) 94 system (copyright 1995, Gaussian, Inc.),
 the Gaussian 92(TM) system (copyright 1992, Gaussian, Inc.),
 the Gaussian 90(TM) system (copyright 1990, Gaussian, Inc.),
 the Gaussian 88(TM) system (copyright 1988, Gaussian, Inc.),
 the Gaussian 86(TM) system (copyright 1986, Carnegie Mellon
 University), and the Gaussian 82(TM) system (copyright 1983,
 Carnegie Mellon University). Gaussian is a federally registered
 trademark of Gaussian, Inc.
  
 This software contains proprietary and confidential information,
 including trade secrets, belonging to Gaussian, Inc.
  
 This software is provided under written license and may be
 used, copied, transmitted, or stored only in accord with that
 written license.
  
 The following legend is applicable only to US Government
 contracts under FAR:
  
                    RESTRICTED RIGHTS LEGEND
  
 Use, reproduction and disclosure by the US Government is
 subject to restrictions as set forth in subparagraphs (a)
 and (c) of the Commercial Computer Software - Restricted
 Rights clause in FAR 52.227-19.
  
 Gaussian, Inc.
 340 Quinnipiac St., Bldg. 40, Wallingford CT 06492
  
  
 ---------------------------------------------------------------
 Warning -- This program may not be used in any manner that
 competes with the business of Gaussian, Inc. or will provide
 assistance to any competitor of Gaussian, Inc.  The licensee
 of this program is prohibited from giving any competitor of
 Gaussian, Inc. access to this program.  By using this program,
 the user acknowledges that Gaussian, Inc. is engaged in the
 business of creating and licensing software in the field of
 computational chemistry and represents and warrants to the
 licensee that it is not a competitor of Gaussian, Inc. and that
 it will not use this program in any manner prohibited above.
 ---------------------------------------------------------------
  

 Cite this work as:
 Gaussian 16, Revision A.03,
 M. J. Frisch, G. W. Trucks, H. B. Schlegel, G. E. Scuseria, 
 M. A. Robb, J. R. Cheeseman, G. Scalmani, V. Barone, 
 G. A. Petersson, H. Nakatsuji, X. Li, M. Caricato, A. V. Marenich, 
 J. Bloino, B. G. Janesko, R. Gomperts, B. Mennucci, H. P. Hratchian, 
 J. V. Ortiz, A. F. Izmaylov, J. L. Sonnenberg, D. Williams-Young, 
 F. Ding, F. Lipparini, F. Egidi, J. Goings, B. Peng, A. Petrone, 
 T. Henderson, D. Ranasinghe, V. G. Zakrzewski, J. Gao, N. Rega, 
 G. Zheng, W. Liang, M. Hada, M. Ehara, K. Toyota, R. Fukuda, 
 J. Hasegawa, M. Ishida, T. Nakajima, Y. Honda, O. Kitao, H. Nakai, 
 T. Vreven, K. Throssell, J. A. Montgomery, Jr., J. E. Peralta, 
 F. Ogliaro, M. J. Bearpark, J. J. Heyd, E. N. Brothers, K. N. Kudin, 
 V. N. Staroverov, T. A. Keith, R. Kobayashi, J. Normand, 
 K. Raghavachari, A. P. Rendell, J. C. Burant, S. S. Iyengar, 
 J. Tomasi, M. Cossi, J. M. Millam, M. Klene, C. Adamo, R. Cammi, 
 J. W. Ochterski, R. L. Martin, K. Morokuma, O. Farkas, 
 J. B. Foresman, and D. J. Fox, Gaussian, Inc., Wallingford CT, 2016.
 
 ******************************************
 Gaussian 16:  EM64L-G16RevA.03 25-Dec-2016
                16-Mar-2023 
 ******************************************
 %chk=dimer14b_000_005_opt.chk
 %mem=2000MB
 %nproc=8
 Will use up to    8 processors via shared memory.
 ------------------------
 #p opt M062X/6-311g(d,p)
 ------------------------
 1/18=20,19=15,26=3,38=1/1,3;
 2/9=110,12=2,17=6,18=5,40=1/2;
 3/5=4,6=6,7=101,11=2,25=1,30=1,71=1,74=-55/1,2,3;
 4//1;
 5/5=2,38=5/2;
 6/7=2,8=2,9=2,10=2,28=1/1;
 7//1,2,3,16;
 1/18=20,19=15,26=3/3(2);
 2/9=110/2;
 99//99;
 2/9=110/2;
 3/5=4,6=6,7=101,11=2,25=1,30=1,71=1,74=-55/1,2,3;
 4/5=5,16=3,69=1/1;
 5/5=2,38=5/2;
 7//1,2,3,16;
 1/18=20,19=15,26=3/3(-5);
 2/9=110/2;
 6/7=2,8=2,9=2,10=2,19=2,28=1/1;
 99/9=1/99;
 Leave Link    1 at Thu Mar 16 18:22:50 2023, MaxMem=   262144000 cpu:               0.8 elap:               0.2
 (Enter /dragofs/sw/campus/0.2/software/gaussian/16.gaussian/gaussian/g16_legacy/l101.exe)
 ---------------------------------------------------------
 Optimization 03-DIHEDRAL_PHI_PSI_14b/dimer14b_000_005.log
 ---------------------------------------------------------
 Symbolic Z-matrix:
 Charge =  0 Multiplicity = 1
 C                     3.44782   0.49459  -0.87653 
 H                     2.8441    0.43099  -1.79061 
 O                     4.62425   1.11817  -1.22037 
 H                     5.25314   1.00363  -0.50121 
 C                     1.43187   0.91608   0.37743 
 H                     0.81002   1.08415  -0.51085 
 O                     2.7774    1.28562   0.09609 
 C                     3.64151  -0.88408  -0.25902 
 H                     4.17931  -0.74789   0.69331 
 O                     4.36356  -1.70183  -1.14196 
 H                     4.31222  -2.59727  -0.79131 
 C                     2.27646  -1.47502   0.03132 
 H                     1.78967  -1.65397  -0.94101 
 O                     2.48465  -2.70251   0.69815 
 H                     1.62015  -3.08725   0.86726 
 C                     1.39058  -0.54406   0.85071 
 H                     1.7835   -0.56296   1.87412 
 O                     0.10738  -1.18238   0.95581 
 C                     1.0227    1.87448   1.48533 
 H                     0.05839   1.59935   1.90186 
 H                     1.78979   1.81967   2.26671 
 O                     0.90957   3.19564   0.99149 
 H                     1.73421   3.39991   0.53594 
 C                    -0.94164  -0.74883   0.14701 
 H                    -0.64635  -0.78139  -0.91711 
 C                    -2.35014   1.04772  -0.39946 
 H                    -2.02738   0.91182  -1.44206 
 O                    -1.33691   0.55396   0.48128 
 C                    -2.11231  -1.6927    0.39359 
 H                    -2.3549   -1.63902   1.46243 
 O                    -1.83211  -3.01856  -0.00555 
 H                    -1.19963  -3.38418   0.61753 
 C                    -3.30851  -1.23124  -0.41813 
 H                    -3.06475  -1.34242  -1.48552 
 O                    -4.4682   -1.97196  -0.10353 
 H                    -4.26159  -2.90054  -0.24975 
 C                    -3.61716   0.23493  -0.1618 
 H                    -3.92789   0.35095   0.8869 
 O                    -4.61725   0.68984  -1.0417 
 H                    -5.34102   0.05681  -0.98932 
 C                    -2.49184   2.53742  -0.16218 
 H                    -3.38475   2.87518  -0.69087 
 H                    -2.63693   2.71382   0.91177 
 O                    -1.38746   3.23813  -0.67544 
 H                    -0.66452   3.24199  -0.03203 
 
 ITRead=  0  0  0  0  0  0  0  0  0  0  0  0  0  0  0  0  0  0  0  0
 ITRead=  0  0  0  0  0  0  0  0  0  0  0  0  0  0  0  0  0  0  0  0
 ITRead=  0  0  0  0  0
 MicOpt= -1 -1 -1 -1 -1 -1 -1 -1 -1 -1 -1 -1 -1 -1 -1 -1 -1 -1 -1 -1
 MicOpt= -1 -1 -1 -1 -1 -1 -1 -1 -1 -1 -1 -1 -1 -1 -1 -1 -1 -1 -1 -1
 MicOpt= -1 -1 -1 -1 -1
 NAtoms=     45 NQM=       45 NQMF=       0 NMMI=      0 NMMIF=      0
                NMic=       0 NMicF=      0.
                    Isotopes and Nuclear Properties:
 (Nuclear quadrupole moments (NQMom) in fm**2, nuclear magnetic moments (NMagM)
  in nuclear magnetons)

  Atom         1           2           3           4           5           6           7           8           9          10
 IAtWgt=          12           1          16           1          12           1          16          12           1          16
 AtmWgt=  12.0000000   1.0078250  15.9949146   1.0078250  12.0000000   1.0078250  15.9949146  12.0000000   1.0078250  15.9949146
 NucSpn=           0           1           0           1           0           1           0           0           1           0
 AtZEff=  -0.0000000  -0.0000000  -0.0000000  -0.0000000  -0.0000000  -0.0000000  -0.0000000  -0.0000000  -0.0000000  -0.0000000
 NQMom=    0.0000000   0.0000000   0.0000000   0.0000000   0.0000000   0.0000000   0.0000000   0.0000000   0.0000000   0.0000000
 NMagM=    0.0000000   2.7928460   0.0000000   2.7928460   0.0000000   2.7928460   0.0000000   0.0000000   2.7928460   0.0000000
 AtZNuc=   6.0000000   1.0000000   8.0000000   1.0000000   6.0000000   1.0000000   8.0000000   6.0000000   1.0000000   8.0000000

  Atom        11          12          13          14          15          16          17          18          19          20
 IAtWgt=           1          12           1          16           1          12           1          16          12           1
 AtmWgt=   1.0078250  12.0000000   1.0078250  15.9949146   1.0078250  12.0000000   1.0078250  15.9949146  12.0000000   1.0078250
 NucSpn=           1           0           1           0           1           0           1           0           0           1
 AtZEff=  -0.0000000  -0.0000000  -0.0000000  -0.0000000  -0.0000000  -0.0000000  -0.0000000  -0.0000000  -0.0000000  -0.0000000
 NQMom=    0.0000000   0.0000000   0.0000000   0.0000000   0.0000000   0.0000000   0.0000000   0.0000000   0.0000000   0.0000000
 NMagM=    2.7928460   0.0000000   2.7928460   0.0000000   2.7928460   0.0000000   2.7928460   0.0000000   0.0000000   2.7928460
 AtZNuc=   1.0000000   6.0000000   1.0000000   8.0000000   1.0000000   6.0000000   1.0000000   8.0000000   6.0000000   1.0000000

  Atom        21          22          23          24          25          26          27          28          29          30
 IAtWgt=           1          16           1          12           1          12           1          16          12           1
 AtmWgt=   1.0078250  15.9949146   1.0078250  12.0000000   1.0078250  12.0000000   1.0078250  15.9949146  12.0000000   1.0078250
 NucSpn=           1           0           1           0           1           0           1           0           0           1
 AtZEff=  -0.0000000  -0.0000000  -0.0000000  -0.0000000  -0.0000000  -0.0000000  -0.0000000  -0.0000000  -0.0000000  -0.0000000
 NQMom=    0.0000000   0.0000000   0.0000000   0.0000000   0.0000000   0.0000000   0.0000000   0.0000000   0.0000000   0.0000000
 NMagM=    2.7928460   0.0000000   2.7928460   0.0000000   2.7928460   0.0000000   2.7928460   0.0000000   0.0000000   2.7928460
 AtZNuc=   1.0000000   8.0000000   1.0000000   6.0000000   1.0000000   6.0000000   1.0000000   8.0000000   6.0000000   1.0000000

  Atom        31          32          33          34          35          36          37          38          39          40
 IAtWgt=          16           1          12           1          16           1          12           1          16           1
 AtmWgt=  15.9949146   1.0078250  12.0000000   1.0078250  15.9949146   1.0078250  12.0000000   1.0078250  15.9949146   1.0078250
 NucSpn=           0           1           0           1           0           1           0           1           0           1
 AtZEff=  -0.0000000  -0.0000000  -0.0000000  -0.0000000  -0.0000000  -0.0000000  -0.0000000  -0.0000000  -0.0000000  -0.0000000
 NQMom=    0.0000000   0.0000000   0.0000000   0.0000000   0.0000000   0.0000000   0.0000000   0.0000000   0.0000000   0.0000000
 NMagM=    0.0000000   2.7928460   0.0000000   2.7928460   0.0000000   2.7928460   0.0000000   2.7928460   0.0000000   2.7928460
 AtZNuc=   8.0000000   1.0000000   6.0000000   1.0000000   8.0000000   1.0000000   6.0000000   1.0000000   8.0000000   1.0000000

  Atom        41          42          43          44          45
 IAtWgt=          12           1           1          16           1
 AtmWgt=  12.0000000   1.0078250   1.0078250  15.9949146   1.0078250
 NucSpn=           0           1           1           0           1
 AtZEff=  -0.0000000  -0.0000000  -0.0000000  -0.0000000  -0.0000000
 NQMom=    0.0000000   0.0000000   0.0000000   0.0000000   0.0000000
 NMagM=    0.0000000   2.7928460   2.7928460   0.0000000   2.7928460
 AtZNuc=   6.0000000   1.0000000   1.0000000   8.0000000   1.0000000
 Leave Link  101 at Thu Mar 16 18:22:51 2023, MaxMem=   262144000 cpu:               3.0 elap:               0.7
 (Enter /dragofs/sw/campus/0.2/software/gaussian/16.gaussian/gaussian/g16_legacy/l103.exe)

 GradGradGradGradGradGradGradGradGradGradGradGradGradGradGradGradGradGrad
 Berny optimization.
 Initialization pass.
                           ----------------------------
                           !    Initial Parameters    !
                           ! (Angstroms and Degrees)  !
 --------------------------                            --------------------------
 ! Name  Definition              Value          Derivative Info.                !
 --------------------------------------------------------------------------------
 ! R1    R(1,2)                  1.0973         estimate D2E/DX2                !
 ! R2    R(1,3)                  1.3752         estimate D2E/DX2                !
 ! R3    R(1,7)                  1.4217         estimate D2E/DX2                !
 ! R4    R(1,8)                  1.523          estimate D2E/DX2                !
 ! R5    R(3,4)                  0.9622         estimate D2E/DX2                !
 ! R6    R(5,6)                  1.0973         estimate D2E/DX2                !
 ! R7    R(5,7)                  1.4234         estimate D2E/DX2                !
 ! R8    R(5,16)                 1.5355         estimate D2E/DX2                !
 ! R9    R(5,19)                 1.521          estimate D2E/DX2                !
 ! R10   R(8,9)                  1.1021         estimate D2E/DX2                !
 ! R11   R(8,10)                 1.4034         estimate D2E/DX2                !
 ! R12   R(8,12)                 1.5155         estimate D2E/DX2                !
 ! R13   R(10,11)                0.963          estimate D2E/DX2                !
 ! R14   R(12,13)                1.102          estimate D2E/DX2                !
 ! R15   R(12,14)                1.4124         estimate D2E/DX2                !
 ! R16   R(12,16)                1.5241         estimate D2E/DX2                !
 ! R17   R(14,15)                0.9612         estimate D2E/DX2                !
 ! R18   R(16,17)                1.0964         estimate D2E/DX2                !
 ! R19   R(16,18)                1.4371         estimate D2E/DX2                !
 ! R20   R(18,24)                1.3938         estimate D2E/DX2                !
 ! R21   R(19,20)                1.0859         estimate D2E/DX2                !
 ! R22   R(19,21)                1.0964         estimate D2E/DX2                !
 ! R23   R(19,22)                1.415          estimate D2E/DX2                !
 ! R24   R(22,23)                0.964          estimate D2E/DX2                !
 ! R25   R(24,25)                1.1048         estimate D2E/DX2                !
 ! R26   R(24,28)                1.4019         estimate D2E/DX2                !
 ! R27   R(24,29)                1.5239         estimate D2E/DX2                !
 ! R28   R(26,27)                1.0998         estimate D2E/DX2                !
 ! R29   R(26,28)                1.4304         estimate D2E/DX2                !
 ! R30   R(26,37)                1.524          estimate D2E/DX2                !
 ! R31   R(26,41)                1.5151         estimate D2E/DX2                !
 ! R32   R(29,30)                1.0973         estimate D2E/DX2                !
 ! R33   R(29,31)                1.4127         estimate D2E/DX2                !
 ! R34   R(29,33)                1.5175         estimate D2E/DX2                !
 ! R35   R(31,32)                0.9602         estimate D2E/DX2                !
 ! R36   R(33,34)                1.1005         estimate D2E/DX2                !
 ! R37   R(33,35)                1.4116         estimate D2E/DX2                !
 ! R38   R(33,37)                1.5201         estimate D2E/DX2                !
 ! R39   R(35,36)                0.9625         estimate D2E/DX2                !
 ! R40   R(37,38)                1.0999         estimate D2E/DX2                !
 ! R41   R(37,39)                1.4076         estimate D2E/DX2                !
 ! R42   R(39,40)                0.963          estimate D2E/DX2                !
 ! R43   R(41,42)                1.0913         estimate D2E/DX2                !
 ! R44   R(41,43)                1.098          estimate D2E/DX2                !
 ! R45   R(41,44)                1.405          estimate D2E/DX2                !
 ! R46   R(44,45)                0.9678         estimate D2E/DX2                !
 ! A1    A(2,1,3)              106.7784         estimate D2E/DX2                !
 ! A2    A(2,1,7)              110.0418         estimate D2E/DX2                !
 ! A3    A(2,1,8)              110.809          estimate D2E/DX2                !
 ! A4    A(3,1,7)              108.7944         estimate D2E/DX2                !
 ! A5    A(3,1,8)              113.7698         estimate D2E/DX2                !
 ! A6    A(7,1,8)              106.6341         estimate D2E/DX2                !
 ! A7    A(1,3,4)              108.559          estimate D2E/DX2                !
 ! A8    A(6,5,7)              109.6298         estimate D2E/DX2                !
 ! A9    A(6,5,16)             112.33           estimate D2E/DX2                !
 ! A10   A(6,5,19)             109.92           estimate D2E/DX2                !
 ! A11   A(7,5,16)             109.4634         estimate D2E/DX2                !
 ! A12   A(7,5,19)             103.5728         estimate D2E/DX2                !
 ! A13   A(16,5,19)            111.5583         estimate D2E/DX2                !
 ! A14   A(1,7,5)              115.8827         estimate D2E/DX2                !
 ! A15   A(1,8,9)              107.4897         estimate D2E/DX2                !
 ! A16   A(1,8,10)             109.743          estimate D2E/DX2                !
 ! A17   A(1,8,12)             108.4266         estimate D2E/DX2                !
 ! A18   A(9,8,10)             111.3805         estimate D2E/DX2                !
 ! A19   A(9,8,12)             108.7934         estimate D2E/DX2                !
 ! A20   A(10,8,12)            110.8996         estimate D2E/DX2                !
 ! A21   A(8,10,11)            106.5757         estimate D2E/DX2                !
 ! A22   A(8,12,13)            106.9872         estimate D2E/DX2                !
 ! A23   A(8,12,14)            107.2511         estimate D2E/DX2                !
 ! A24   A(8,12,16)            112.8521         estimate D2E/DX2                !
 ! A25   A(13,12,14)           109.9114         estimate D2E/DX2                !
 ! A26   A(13,12,16)           108.4692         estimate D2E/DX2                !
 ! A27   A(14,12,16)           111.2675         estimate D2E/DX2                !
 ! A28   A(12,14,15)           107.3585         estimate D2E/DX2                !
 ! A29   A(5,16,12)            113.548          estimate D2E/DX2                !
 ! A30   A(5,16,17)            107.1257         estimate D2E/DX2                !
 ! A31   A(5,16,18)            117.966          estimate D2E/DX2                !
 ! A32   A(12,16,17)           106.4391         estimate D2E/DX2                !
 ! A33   A(12,16,18)           106.6794         estimate D2E/DX2                !
 ! A34   A(17,16,18)           104.1272         estimate D2E/DX2                !
 ! A35   A(16,18,24)           119.4369         estimate D2E/DX2                !
 ! A36   A(5,19,20)            111.0183         estimate D2E/DX2                !
 ! A37   A(5,19,21)            107.4228         estimate D2E/DX2                !
 ! A38   A(5,19,22)            110.8316         estimate D2E/DX2                !
 ! A39   A(20,19,21)           109.591          estimate D2E/DX2                !
 ! A40   A(20,19,22)           107.4246         estimate D2E/DX2                !
 ! A41   A(21,19,22)           110.5704         estimate D2E/DX2                !
 ! A42   A(19,22,23)           107.1204         estimate D2E/DX2                !
 ! A43   A(18,24,25)           110.4017         estimate D2E/DX2                !
 ! A44   A(18,24,28)           111.2798         estimate D2E/DX2                !
 ! A45   A(18,24,29)           106.9561         estimate D2E/DX2                !
 ! A46   A(25,24,28)           109.4153         estimate D2E/DX2                !
 ! A47   A(25,24,29)           110.0552         estimate D2E/DX2                !
 ! A48   A(28,24,29)           108.6884         estimate D2E/DX2                !
 ! A49   A(27,26,28)           109.4596         estimate D2E/DX2                !
 ! A50   A(27,26,37)           109.0214         estimate D2E/DX2                !
 ! A51   A(27,26,41)           107.3008         estimate D2E/DX2                !
 ! A52   A(28,26,37)           107.9866         estimate D2E/DX2                !
 ! A53   A(28,26,41)           108.0115         estimate D2E/DX2                !
 ! A54   A(37,26,41)           114.9748         estimate D2E/DX2                !
 ! A55   A(24,28,26)           111.9434         estimate D2E/DX2                !
 ! A56   A(24,29,30)           107.286          estimate D2E/DX2                !
 ! A57   A(24,29,31)           112.5333         estimate D2E/DX2                !
 ! A58   A(24,29,33)           109.3094         estimate D2E/DX2                !
 ! A59   A(30,29,31)           111.4052         estimate D2E/DX2                !
 ! A60   A(30,29,33)           109.3829         estimate D2E/DX2                !
 ! A61   A(31,29,33)           106.8953         estimate D2E/DX2                !
 ! A62   A(29,31,32)           107.7394         estimate D2E/DX2                !
 ! A63   A(29,33,34)           108.27           estimate D2E/DX2                !
 ! A64   A(29,33,35)           111.6438         estimate D2E/DX2                !
 ! A65   A(29,33,37)           111.2953         estimate D2E/DX2                !
 ! A66   A(34,33,35)           110.1898         estimate D2E/DX2                !
 ! A67   A(34,33,37)           107.8166         estimate D2E/DX2                !
 ! A68   A(35,33,37)           107.5618         estimate D2E/DX2                !
 ! A69   A(33,35,36)           107.2205         estimate D2E/DX2                !
 ! A70   A(26,37,33)           108.6214         estimate D2E/DX2                !
 ! A71   A(26,37,38)           109.1053         estimate D2E/DX2                !
 ! A72   A(26,37,39)           108.7146         estimate D2E/DX2                !
 ! A73   A(33,37,38)           108.6558         estimate D2E/DX2                !
 ! A74   A(33,37,39)           110.5223         estimate D2E/DX2                !
 ! A75   A(38,37,39)           111.1741         estimate D2E/DX2                !
 ! A76   A(37,39,40)           106.7115         estimate D2E/DX2                !
 ! A77   A(26,41,42)           107.7561         estimate D2E/DX2                !
 ! A78   A(26,41,43)           108.8747         estimate D2E/DX2                !
 ! A79   A(26,41,44)           111.078          estimate D2E/DX2                !
 ! A80   A(42,41,43)           108.4224         estimate D2E/DX2                !
 ! A81   A(42,41,44)           108.1685         estimate D2E/DX2                !
 ! A82   A(43,41,44)           112.3989         estimate D2E/DX2                !
 ! A83   A(41,44,45)           110.2607         estimate D2E/DX2                !
 ! D1    D(2,1,3,4)           -166.7414         estimate D2E/DX2                !
 ! D2    D(7,1,3,4)             74.5266         estimate D2E/DX2                !
 ! D3    D(8,1,3,4)            -44.1779         estimate D2E/DX2                !
 ! D4    D(2,1,7,5)             52.0243         estimate D2E/DX2                !
 ! D5    D(3,1,7,5)            168.6868         estimate D2E/DX2                !
 ! D6    D(8,1,7,5)            -68.2179         estimate D2E/DX2                !
 ! D7    D(2,1,8,9)           -175.383          estimate D2E/DX2                !
 ! D8    D(2,1,8,10)            63.3389         estimate D2E/DX2                !
 ! D9    D(2,1,8,12)           -57.9309         estimate D2E/DX2                !
 ! D10   D(3,1,8,9)             64.2975         estimate D2E/DX2                !
 ! D11   D(3,1,8,10)           -56.9806         estimate D2E/DX2                !
 ! D12   D(3,1,8,12)          -178.2504         estimate D2E/DX2                !
 ! D13   D(7,1,8,9)            -55.6358         estimate D2E/DX2                !
 ! D14   D(7,1,8,10)          -176.9139         estimate D2E/DX2                !
 ! D15   D(7,1,8,12)            61.8163         estimate D2E/DX2                !
 ! D16   D(6,5,7,1)            -65.7523         estimate D2E/DX2                !
 ! D17   D(16,5,7,1)            57.8813         estimate D2E/DX2                !
 ! D18   D(19,5,7,1)           176.9747         estimate D2E/DX2                !
 ! D19   D(6,5,16,12)           78.845          estimate D2E/DX2                !
 ! D20   D(6,5,16,17)         -163.9412         estimate D2E/DX2                !
 ! D21   D(6,5,16,18)          -47.0197         estimate D2E/DX2                !
 ! D22   D(7,5,16,12)          -43.1837         estimate D2E/DX2                !
 ! D23   D(7,5,16,17)           74.0301         estimate D2E/DX2                !
 ! D24   D(7,5,16,18)         -169.0484         estimate D2E/DX2                !
 ! D25   D(19,5,16,12)        -157.2159         estimate D2E/DX2                !
 ! D26   D(19,5,16,17)         -40.0021         estimate D2E/DX2                !
 ! D27   D(19,5,16,18)          76.9193         estimate D2E/DX2                !
 ! D28   D(6,5,19,20)           71.6601         estimate D2E/DX2                !
 ! D29   D(6,5,19,21)         -168.5346         estimate D2E/DX2                !
 ! D30   D(6,5,19,22)          -47.643          estimate D2E/DX2                !
 ! D31   D(7,5,19,20)         -171.2701         estimate D2E/DX2                !
 ! D32   D(7,5,19,21)          -51.4648         estimate D2E/DX2                !
 ! D33   D(7,5,19,22)           69.4268         estimate D2E/DX2                !
 ! D34   D(16,5,19,20)         -53.6282         estimate D2E/DX2                !
 ! D35   D(16,5,19,21)          66.1771         estimate D2E/DX2                !
 ! D36   D(16,5,19,22)        -172.9313         estimate D2E/DX2                !
 ! D37   D(1,8,10,11)         -169.2209         estimate D2E/DX2                !
 ! D38   D(9,8,10,11)           71.8706         estimate D2E/DX2                !
 ! D39   D(12,8,10,11)         -49.4502         estimate D2E/DX2                !
 ! D40   D(1,8,12,13)           66.6741         estimate D2E/DX2                !
 ! D41   D(1,8,12,14)         -175.4382         estimate D2E/DX2                !
 ! D42   D(1,8,12,16)          -52.5484         estimate D2E/DX2                !
 ! D43   D(9,8,12,13)         -176.7109         estimate D2E/DX2                !
 ! D44   D(9,8,12,14)          -58.8232         estimate D2E/DX2                !
 ! D45   D(9,8,12,16)           64.0666         estimate D2E/DX2                !
 ! D46   D(10,8,12,13)         -53.8804         estimate D2E/DX2                !
 ! D47   D(10,8,12,14)          64.0074         estimate D2E/DX2                !
 ! D48   D(10,8,12,16)        -173.1029         estimate D2E/DX2                !
 ! D49   D(8,12,14,15)        -178.8774         estimate D2E/DX2                !
 ! D50   D(13,12,14,15)        -62.9106         estimate D2E/DX2                !
 ! D51   D(16,12,14,15)         57.2581         estimate D2E/DX2                !
 ! D52   D(8,12,16,5)           43.8507         estimate D2E/DX2                !
 ! D53   D(8,12,16,17)         -73.7623         estimate D2E/DX2                !
 ! D54   D(8,12,16,18)         175.5018         estimate D2E/DX2                !
 ! D55   D(13,12,16,5)         -74.5096         estimate D2E/DX2                !
 ! D56   D(13,12,16,17)        167.8774         estimate D2E/DX2                !
 ! D57   D(13,12,16,18)         57.1414         estimate D2E/DX2                !
 ! D58   D(14,12,16,5)         164.4727         estimate D2E/DX2                !
 ! D59   D(14,12,16,17)         46.8597         estimate D2E/DX2                !
 ! D60   D(14,12,16,18)        -63.8763         estimate D2E/DX2                !
 ! D61   D(5,16,18,24)          27.0759         estimate D2E/DX2                !
 ! D62   D(12,16,18,24)       -102.0694         estimate D2E/DX2                !
 ! D63   D(17,16,18,24)        145.5937         estimate D2E/DX2                !
 ! D64   D(16,18,24,25)         55.0733         estimate D2E/DX2                !
 ! D65   D(16,18,24,28)        -66.6265         estimate D2E/DX2                !
 ! D66   D(16,18,24,29)        174.8027         estimate D2E/DX2                !
 ! D67   D(5,19,22,23)         -52.3571         estimate D2E/DX2                !
 ! D68   D(20,19,22,23)       -173.7987         estimate D2E/DX2                !
 ! D69   D(21,19,22,23)         66.6537         estimate D2E/DX2                !
 ! D70   D(18,24,28,26)        175.9827         estimate D2E/DX2                !
 ! D71   D(25,24,28,26)         53.7108         estimate D2E/DX2                !
 ! D72   D(29,24,28,26)        -66.4919         estimate D2E/DX2                !
 ! D73   D(18,24,29,30)         59.0082         estimate D2E/DX2                !
 ! D74   D(18,24,29,31)        -63.8752         estimate D2E/DX2                !
 ! D75   D(18,24,29,33)        177.5196         estimate D2E/DX2                !
 ! D76   D(25,24,29,30)        178.9602         estimate D2E/DX2                !
 ! D77   D(25,24,29,31)         56.0768         estimate D2E/DX2                !
 ! D78   D(25,24,29,33)        -62.5284         estimate D2E/DX2                !
 ! D79   D(28,24,29,30)        -61.2347         estimate D2E/DX2                !
 ! D80   D(28,24,29,31)        175.8819         estimate D2E/DX2                !
 ! D81   D(28,24,29,33)         57.2767         estimate D2E/DX2                !
 ! D82   D(27,26,28,24)        -51.192          estimate D2E/DX2                !
 ! D83   D(37,26,28,24)         67.3719         estimate D2E/DX2                !
 ! D84   D(41,26,28,24)       -167.7138         estimate D2E/DX2                !
 ! D85   D(27,26,37,33)         60.3878         estimate D2E/DX2                !
 ! D86   D(27,26,37,38)        178.6786         estimate D2E/DX2                !
 ! D87   D(27,26,37,39)        -59.9261         estimate D2E/DX2                !
 ! D88   D(28,26,37,33)        -58.4554         estimate D2E/DX2                !
 ! D89   D(28,26,37,38)         59.8353         estimate D2E/DX2                !
 ! D90   D(28,26,37,39)       -178.7694         estimate D2E/DX2                !
 ! D91   D(41,26,37,33)       -179.1091         estimate D2E/DX2                !
 ! D92   D(41,26,37,38)        -60.8184         estimate D2E/DX2                !
 ! D93   D(41,26,37,39)         60.5769         estimate D2E/DX2                !
 ! D94   D(27,26,41,42)         72.6221         estimate D2E/DX2                !
 ! D95   D(27,26,41,43)       -169.9804         estimate D2E/DX2                !
 ! D96   D(27,26,41,44)        -45.6923         estimate D2E/DX2                !
 ! D97   D(28,26,41,42)       -169.4614         estimate D2E/DX2                !
 ! D98   D(28,26,41,43)        -52.0639         estimate D2E/DX2                !
 ! D99   D(28,26,41,44)         72.2242         estimate D2E/DX2                !
 ! D100  D(37,26,41,42)        -48.8214         estimate D2E/DX2                !
 ! D101  D(37,26,41,43)         68.5761         estimate D2E/DX2                !
 ! D102  D(37,26,41,44)       -167.1358         estimate D2E/DX2                !
 ! D103  D(24,29,31,32)         71.3081         estimate D2E/DX2                !
 ! D104  D(30,29,31,32)        -49.2342         estimate D2E/DX2                !
 ! D105  D(33,29,31,32)       -168.6808         estimate D2E/DX2                !
 ! D106  D(24,29,33,34)         65.7416         estimate D2E/DX2                !
 ! D107  D(24,29,33,35)       -172.7903         estimate D2E/DX2                !
 ! D108  D(24,29,33,37)        -52.586          estimate D2E/DX2                !
 ! D109  D(30,29,33,34)       -177.0621         estimate D2E/DX2                !
 ! D110  D(30,29,33,35)        -55.5939         estimate D2E/DX2                !
 ! D111  D(30,29,33,37)         64.6104         estimate D2E/DX2                !
 ! D112  D(31,29,33,34)        -56.3181         estimate D2E/DX2                !
 ! D113  D(31,29,33,35)         65.15           estimate D2E/DX2                !
 ! D114  D(31,29,33,37)       -174.6457         estimate D2E/DX2                !
 ! D115  D(29,33,35,36)        -56.4601         estimate D2E/DX2                !
 ! D116  D(34,33,35,36)         63.8895         estimate D2E/DX2                !
 ! D117  D(37,33,35,36)       -178.8318         estimate D2E/DX2                !
 ! D118  D(29,33,37,26)         53.4562         estimate D2E/DX2                !
 ! D119  D(29,33,37,38)        -65.1185         estimate D2E/DX2                !
 ! D120  D(29,33,37,39)        172.6427         estimate D2E/DX2                !
 ! D121  D(34,33,37,26)        -65.1438         estimate D2E/DX2                !
 ! D122  D(34,33,37,38)        176.2815         estimate D2E/DX2                !
 ! D123  D(34,33,37,39)         54.0427         estimate D2E/DX2                !
 ! D124  D(35,33,37,26)        176.0432         estimate D2E/DX2                !
 ! D125  D(35,33,37,38)         57.4685         estimate D2E/DX2                !
 ! D126  D(35,33,37,39)        -64.7703         estimate D2E/DX2                !
 ! D127  D(26,37,39,40)        169.4198         estimate D2E/DX2                !
 ! D128  D(33,37,39,40)         50.2897         estimate D2E/DX2                !
 ! D129  D(38,37,39,40)        -70.4598         estimate D2E/DX2                !
 ! D130  D(26,41,44,45)        -84.3378         estimate D2E/DX2                !
 ! D131  D(42,41,44,45)        157.5973         estimate D2E/DX2                !
 ! D132  D(43,41,44,45)         37.9276         estimate D2E/DX2                !
 --------------------------------------------------------------------------------
 Trust Radius=3.00D-01 FncErr=1.00D-07 GrdErr=1.00D-06 EigMax=2.50D+02 EigMin=1.00D-04
 Number of steps in this run=    270 maximum allowed number of steps=    270.
 GradGradGradGradGradGradGradGradGradGradGradGradGradGradGradGradGradGrad

 Leave Link  103 at Thu Mar 16 18:22:51 2023, MaxMem=   262144000 cpu:               0.2 elap:               0.1
 (Enter /dragofs/sw/campus/0.2/software/gaussian/16.gaussian/gaussian/g16_legacy/l202.exe)
                          Input orientation:                          
 ---------------------------------------------------------------------
 Center     Atomic      Atomic             Coordinates (Angstroms)
 Number     Number       Type             X           Y           Z
 ---------------------------------------------------------------------
      1          6           0        3.447816    0.494590   -0.876530
      2          1           0        2.844098    0.430989   -1.790605
      3          8           0        4.624246    1.118165   -1.220375
      4          1           0        5.253135    1.003626   -0.501213
      5          6           0        1.431868    0.916083    0.377432
      6          1           0        0.810019    1.084152   -0.510850
      7          8           0        2.777404    1.285616    0.096091
      8          6           0        3.641506   -0.884082   -0.259021
      9          1           0        4.179308   -0.747885    0.693313
     10          8           0        4.363564   -1.701829   -1.141958
     11          1           0        4.312224   -2.597265   -0.791309
     12          6           0        2.276458   -1.475016    0.031317
     13          1           0        1.789666   -1.653967   -0.941008
     14          8           0        2.484652   -2.702514    0.698153
     15          1           0        1.620154   -3.087248    0.867259
     16          6           0        1.390582   -0.544055    0.850709
     17          1           0        1.783501   -0.562962    1.874123
     18          8           0        0.107378   -1.182379    0.955809
     19          6           0        1.022701    1.874476    1.485333
     20          1           0        0.058392    1.599353    1.901861
     21          1           0        1.789794    1.819670    2.266709
     22          8           0        0.909573    3.195645    0.991488
     23          1           0        1.734213    3.399907    0.535944
     24          6           0       -0.941635   -0.748834    0.147009
     25          1           0       -0.646350   -0.781392   -0.917108
     26          6           0       -2.350144    1.047717   -0.399461
     27          1           0       -2.027375    0.911818   -1.442064
     28          8           0       -1.336905    0.553958    0.481282
     29          6           0       -2.112310   -1.692702    0.393589
     30          1           0       -2.354900   -1.639020    1.462434
     31          8           0       -1.832106   -3.018556   -0.005551
     32          1           0       -1.199630   -3.384182    0.617531
     33          6           0       -3.308506   -1.231243   -0.418126
     34          1           0       -3.064746   -1.342421   -1.485522
     35          8           0       -4.468199   -1.971956   -0.103526
     36          1           0       -4.261587   -2.900540   -0.249747
     37          6           0       -3.617160    0.234930   -0.161799
     38          1           0       -3.927885    0.350950    0.886902
     39          8           0       -4.617254    0.689836   -1.041704
     40          1           0       -5.341015    0.056808   -0.989324
     41          6           0       -2.491836    2.537419   -0.162184
     42          1           0       -3.384751    2.875179   -0.690870
     43          1           0       -2.636926    2.713816    0.911774
     44          8           0       -1.387462    3.238130   -0.675435
     45          1           0       -0.664515    3.241988   -0.032031
 ---------------------------------------------------------------------
                    Distance matrix (angstroms):
                    1          2          3          4          5
     1  C    0.000000
     2  H    1.097294   0.000000
     3  O    1.375159   1.991557   0.000000
     4  H    1.912892   2.791756   0.962193   0.000000
     5  C    2.411249   2.632507   3.575626   3.921959   0.000000
     6  H    2.727504   2.490356   3.879808   4.443856   1.097264
     7  O    1.421677   2.072307   2.274192   2.562330   1.423438
     8  C    1.523013   2.170489   2.428780   2.493882   2.920302
     9  H    2.131486   3.056530   2.709670   2.376507   3.227537
    10  O    2.394432   2.697857   2.833103   2.919140   4.213888
    11  H    3.211547   3.510599   3.753115   3.733080   4.691057
    12  C    2.464876   2.697123   3.715297   3.909969   2.559391
    13  H    2.714759   2.486098   3.974620   4.387692   2.910577
    14  O    3.691718   4.017706   4.780816   4.778959   3.782256
    15  H    4.383003   4.576054   5.573893   5.639727   4.037579
    16  C    2.879991   3.168589   4.184369   4.375194   1.535480
    17  H    3.384443   3.942466   4.524593   4.487179   2.133379
    18  O    4.162718   4.199450   5.516373   5.777573   2.548006
    19  C    3.655635   4.016580   4.567712   4.754084   1.520980
    20  H    4.519751   4.770696   5.552200   5.754564   2.162678
    21  H    3.792733   4.416083   4.548184   4.507999   2.124605
    22  O    4.150647   4.373300   4.796567   5.089168   2.417904
    23  H    3.656827   3.931812   4.079619   4.381857   2.507174
    24  C    4.675576   4.413401   6.027807   6.470431   2.908360
    25  H    4.288586   3.796853   5.610657   6.177636   2.979303
    26  C    5.843790   5.412558   7.022890   7.604088   3.863225
    27  H    5.520111   4.907538   6.658512   7.341625   3.908573
    28  O    4.974006   4.759977   6.224893   6.678033   2.794284
    29  C    6.108392   5.817796   7.475763   7.894342   4.400820
    30  H    6.610186   6.472772   7.969191   8.289854   4.695252
    31  O    6.401435   6.078870   7.763552   8.162369   5.126557
    32  H    6.235050   6.058579   7.587263   7.883059   5.047248
    33  C    6.988313   6.519298   8.312152   8.848912   5.264510
    34  H    6.794037   6.176771   8.077462   8.698273   5.365722
    35  O    8.327345   7.879725   9.667924  10.174310   6.586568
    36  H    8.447169   7.997755   9.800517  10.287647   6.882979
    37  C    7.105783   6.666281   8.355924   8.910007   5.123224
    38  H    7.584938   7.282527   8.841277   9.308275   5.413491
    39  O    8.069124   7.503308   9.253146   9.890155   6.217476
    40  H    8.800450   8.232748  10.024285  10.647569   6.962637
    41  C    6.321622   5.963304   7.332985   7.902660   4.279646
    42  H    7.237793   6.781006   8.216539   8.840348   5.308403
    43  H    6.719158   6.523479   7.734131   8.195996   4.480229
    44  O    5.563036   5.199014   6.397800   7.008630   3.801191
    45  H    5.017234   4.827490   5.821836   6.344208   3.157897
                    6          7          8          9         10
     6  H    0.000000
     7  O    2.068712   0.000000
     8  C    3.457554   2.362280   0.000000
     9  H    4.019761   2.541089   1.102144   0.000000
    10  O    4.559350   3.601874   1.403444   2.076579   0.000000
    11  H    5.088902   4.268479   1.915252   2.375284   0.963014
    12  C    2.998955   2.806462   1.515538   2.141914   2.405001
    13  H    2.939735   3.269916   2.118287   3.033542   2.582174
    14  O    4.313342   4.043929   2.358217   2.586978   2.813839
    15  H    4.467223   4.588667   3.195045   3.471620   3.671871
    16  C    2.200444   2.416696   2.532544   2.800592   3.761620
    17  H    3.057572   2.750724   2.847034   2.677387   4.129224
    18  O    2.789616   3.736195   3.748980   4.103450   4.773424
    19  C    2.157450   2.314245   4.184561   4.179502   5.554636
    20  H    2.579060   3.279064   4.865754   4.894085   6.220703
    21  H    3.035750   2.443802   4.137442   3.844176   5.535726
    22  O    2.593325   2.817577   5.066695   5.131423   6.361360
    23  H    2.704188   2.398321   4.756290   4.817409   5.979678
    24  C    2.619333   4.239438   4.603079   5.150001   5.542091
    25  H    2.401314   4.125674   4.339278   5.087392   5.098725
    26  C    3.162335   5.156929   6.296939   6.859452   7.292817
    27  H    2.991264   5.058809   6.063090   6.770330   6.911246
    28  O    2.423781   4.196574   5.234557   5.671716   6.341832
    29  C    4.131457   5.733078   5.846894   6.369221   6.655444
    30  H    4.618033   6.063080   6.284125   6.639393   7.205870
    31  O    4.905952   6.307441   5.880532   6.463858   6.435178
    32  H    5.027717   6.155949   5.518645   5.990724   6.072499
    33  C    4.725664   6.605853   6.960496   7.585268   7.720495
    34  H    4.674617   6.598393   6.832876   7.587958   7.444931
    35  O    6.112716   7.946722   8.183823   8.769987   8.896704
    36  H    6.455008   8.197006   8.156290   8.761963   8.753638
    37  C    4.521386   6.485437   7.345058   7.904559   8.270653
    38  H    4.993899   6.816149   7.754620   8.183611   8.779425
    39  O    5.467411   7.505365   8.443751   9.080574   9.294364
    40  H    6.254566   8.282320   9.061142   9.701307   9.863820
    41  C    3.624334   5.422048   7.023812   7.485270   8.119587
    42  H    4.564677   6.412345   7.980403   8.500444   9.010487
    43  H    4.069532   5.658627   7.330371   7.648016   8.527754
    44  O    3.081498   4.664083   6.515869   6.982171   7.595732
    45  H    2.657024   3.961138   5.968065   6.317265   7.138266
                   11         12         13         14         15
    11  H    0.000000
    12  C    2.465867   0.000000
    13  H    2.697317   1.102001   0.000000
    14  O    2.359999   1.412362   2.066230   0.000000
    15  H    3.199714   1.931017   2.313624   0.961236   0.000000
    16  C    3.930380   1.524096   2.145093   2.424708   2.553587
    17  H    4.199685   2.114423   3.019154   2.540118   2.722586
    18  O    4.768129   2.375969   2.578838   2.833483   2.434103
    19  C    6.000044   3.860721   4.350319   4.868859   5.035640
    20  H    6.554377   4.227351   4.654386   5.083474   5.047151
    21  H    5.934934   4.011082   4.728171   4.836667   5.105397
    22  O    6.950842   4.960381   5.294133   6.111890   6.324168
    23  H    6.661367   4.930877   5.265558   6.150529   6.496611
    24  C    5.648024   3.301037   3.076207   3.982470   3.542556
    25  H    5.282109   3.150148   2.587689   4.012848   3.692963
    26  C    7.604379   5.287267   4.972967   6.216449   5.870756
    27  H    7.275140   5.137198   4.626458   6.164602   5.884723
    28  O    6.592598   4.168405   4.083294   5.025529   4.706544
    29  C    6.595215   4.409072   4.124084   4.716412   4.012532
    30  H    7.102685   4.850203   4.791053   5.013622   4.272312
    31  O    6.208679   4.389097   3.981760   4.385143   3.561547
    32  H    5.743222   4.008959   3.789271   3.747680   2.846351
    33  C    7.751181   5.608319   5.142320   6.080411   5.421131
    34  H    7.515068   5.553993   4.894780   6.116707   5.525241
    35  O    8.829490   6.764283   6.321659   7.036941   6.265329
    36  H    8.596249   6.697548   6.216868   6.815385   5.989778
    37  C    8.443503   6.139702   5.780040   6.826434   6.286914
    38  H    8.911103   6.523806   6.328613   7.104921   6.527046
    39  O    9.518577   7.304877   6.822916   8.060534   7.537623
    40  H   10.013408   7.836714   7.333191   8.467733   7.860653
    41  C    8.547281   6.234878   6.041982   7.277535   7.043088
    42  H    9.444636   7.176004   6.881157   8.215226   7.938978
    43  H    8.910598   6.516353   6.488840   7.457401   7.195628
    44  O    8.157921   6.011452   5.839288   7.222968   7.171894
    45  H    7.709819   5.559088   5.551542   6.766648   6.788790
                   16         17         18         19         20
    16  C    0.000000
    17  H    1.096412   0.000000
    18  O    1.437051   2.009071   0.000000
    19  C    2.527326   2.582843   3.234590   0.000000
    20  H    2.733834   2.766293   2.938613   1.085855   0.000000
    21  H    2.784174   2.414767   3.682564   1.096350   1.783089
    22  O    3.773135   3.958525   4.451054   1.414980   2.025200
    23  H    3.971397   4.182999   4.880597   1.932493   2.813556
    24  C    2.444660   3.231693   1.393753   3.539983   3.097344
    25  H    2.707508   3.707136   2.058328   3.951087   3.756487
    26  C    4.253198   4.985027   3.584620   3.951210   3.376600
    27  H    4.365639   5.262589   3.833096   4.335819   4.000620
    28  O    2.963325   3.595059   2.307812   2.884376   2.248944
    29  C    3.714647   4.318059   2.345962   4.872880   4.221902
    30  H    3.949910   4.295783   2.554996   4.873743   4.062528
    31  O    4.152355   4.757702   2.838548   5.857851   5.342030
    32  H    3.850960   4.293877   2.582758   5.774541   5.297900
    33  C    4.915648   5.624015   3.682166   5.659329   4.972989
    34  H    5.093654   5.949813   4.006006   5.990128   5.466479
    35  O    6.105308   6.706721   4.762513   6.889811   6.104576
    36  H    6.221820   6.820424   4.846989   7.330415   6.598536
    37  C    5.168121   5.826556   4.138840   5.189361   4.430578
    38  H    5.393370   5.867689   4.317313   5.214168   4.298727
    39  O    6.418552   7.144313   5.460531   6.292724   5.599416
    40  H    7.004367   7.703387   5.916427   7.065743   6.316011
    41  C    5.059111   5.660160   4.673619   3.937737   3.412318
    42  H    6.072185   6.716460   5.600919   5.016263   4.495022
    43  H    5.180567   5.586015   4.765866   3.798201   3.080104
    44  O    4.934731   5.568083   4.943319   3.512457   3.379133
    45  H    4.397360   4.909567   4.598551   2.649374   2.638329
                   21         22         23         24         25
    21  H    0.000000
    22  O    2.072266   0.000000
    23  H    2.344309   0.963989   0.000000
    24  C    4.307092   4.438359   4.952119   0.000000
    25  H    4.778809   4.677655   5.026102   1.104807   0.000000
    26  C    4.984321   4.144163   4.805180   2.347365   2.552746
    27  H    5.399071   4.445639   4.924698   2.541997   2.247169
    28  O    3.816546   3.505065   4.187383   1.401872   2.053173
    29  C    5.574204   5.777992   6.383625   1.523866   2.167360
    30  H    5.457828   5.852569   6.555152   2.126051   3.052358
    31  O    6.456760   6.864924   7.362643   2.442919   2.691070
    32  H    6.223867   6.919733   7.391749   2.689426   3.071767
    33  C    6.519898   6.275073   6.912801   2.480761   2.745619
    34  H    6.902508   6.521107   7.043153   2.743192   2.546858
    35  O    7.691353   7.538142   8.230173   3.741049   4.084836
    36  H    8.076642   8.089810   8.732844   3.976095   4.243359
    37  C    6.135487   5.530571   6.256286   2.867331   3.229414
    38  H    6.062414   5.612863   6.440393   3.267209   3.912176
    39  O    7.298793   6.399904   7.083403   4.122255   4.236522
    40  H    8.034791   7.269509   7.972553   4.614635   4.769452
    41  C    4.974640   3.651548   4.369297   3.646667   3.871723
    42  H    6.052874   4.623229   5.290010   4.450205   4.573897
    43  H    4.714997   3.579968   4.440588   3.930499   4.418561
    44  O    4.556665   2.838452   3.352382   4.095248   4.094412
    45  H    3.651140   1.878162   2.470107   4.004436   4.119621
                   26         27         28         29         30
    26  C    0.000000
    27  H    1.099850   0.000000
    28  O    1.430440   2.074626   0.000000
    29  C    2.862759   3.187532   2.378324   0.000000
    30  H    3.268827   3.879453   2.609239   1.097343   0.000000
    31  O    4.118022   4.189217   3.639380   1.412698   2.081205
    32  H    4.690382   4.835567   3.942887   1.935004   2.257011
    33  C    2.472340   2.698603   2.807684   1.517468   2.147592
    34  H    2.720835   2.481858   3.232647   2.135624   3.046686
    35  O    3.700292   4.008174   4.065371   2.423906   2.651247
    36  H    4.389164   4.576833   4.584945   2.547969   2.856300
    37  C    1.523954   2.150505   2.390585   2.507747   2.782647
    38  H    2.151623   3.057874   2.630383   2.777802   2.601057
    39  O    2.383347   2.630026   3.619204   3.743167   4.100308
    40  H    3.205487   3.451989   4.294501   3.923999   4.219459
    41  C    1.515120   2.120471   2.383701   4.283322   4.483389
    42  H    2.120129   2.502309   3.309937   4.864226   5.106398
    43  H    2.139502   3.026434   2.557414   4.467789   4.396583
    44  O    2.408491   2.531588   2.923240   5.097188   5.412302
    45  H    2.791268   3.045533   2.817996   5.160274   5.377273
                   31         32         33         34         35
    31  O    0.000000
    32  H    0.960177   0.000000
    33  C    2.354668   3.186705   0.000000
    34  H    2.553261   3.474231   1.100506   0.000000
    35  O    2.837949   3.632884   1.411565   2.067827   0.000000
    36  H    2.444573   3.218953   1.929577   2.321056   0.962464
    37  C    3.714297   4.421513   1.520077   2.132004   2.366011
    38  H    4.067227   4.633265   2.142443   3.039886   2.582398
    39  O    4.752140   5.570533   2.406702   2.595636   2.826222
    40  H    4.768450   5.619027   2.473143   2.717619   2.379565
    41  C    5.597199   6.110901   3.864618   4.139155   4.923811
    42  H    6.133228   6.757682   4.116176   4.303722   5.001355
    43  H    5.860828   6.272000   4.217007   4.731080   5.132334
    44  O    6.308135   6.749967   4.871541   4.944792   6.079722
    45  H    6.368546   6.679402   5.210523   5.374993   6.454327
                   36         37         38         39         40
    36  H    0.000000
    37  C    3.202217   0.000000
    38  H    3.460566   1.099902   0.000000
    39  O    3.693846   1.407608   2.075956   0.000000
    40  H    3.233890   1.920469   2.367209   0.962963   0.000000
    41  C    5.719360   2.562774   2.818415   2.950342   3.867223
    42  H    5.858529   2.702748   3.025903   2.533352   3.443727
    43  H    5.958997   2.873725   2.692644   3.440097   4.240986
    44  O    6.791544   3.775525   4.150958   4.130316   5.084281
    45  H    7.121585   4.216319   4.455572   4.812179   5.738592
                   41         42         43         44         45
    41  C    0.000000
    42  H    1.091278   0.000000
    43  H    1.097977   1.775880   0.000000
    44  O    1.405014   2.030058   2.086935   0.000000
    45  H    1.962768   2.822818   2.249475   0.967800   0.000000
 Stoichiometry    C12H22O11
 Framework group  C1[X(C12H22O11)]
 Deg. of freedom   129
 Full point group                 C1      NOp   1
 Largest Abelian subgroup         C1      NOp   1
 Largest concise Abelian subgroup C1      NOp   1
                         Standard orientation:                         
 ---------------------------------------------------------------------
 Center     Atomic      Atomic             Coordinates (Angstroms)
 Number     Number       Type             X           Y           Z
 ---------------------------------------------------------------------
      1          6           0        3.447816    0.494590   -0.876530
      2          1           0        2.844098    0.430989   -1.790605
      3          8           0        4.624246    1.118165   -1.220375
      4          1           0        5.253135    1.003626   -0.501213
      5          6           0        1.431868    0.916083    0.377432
      6          1           0        0.810019    1.084152   -0.510850
      7          8           0        2.777404    1.285616    0.096091
      8          6           0        3.641506   -0.884082   -0.259021
      9          1           0        4.179308   -0.747885    0.693313
     10          8           0        4.363564   -1.701829   -1.141958
     11          1           0        4.312224   -2.597265   -0.791309
     12          6           0        2.276458   -1.475016    0.031317
     13          1           0        1.789666   -1.653967   -0.941008
     14          8           0        2.484652   -2.702514    0.698153
     15          1           0        1.620154   -3.087248    0.867259
     16          6           0        1.390582   -0.544055    0.850709
     17          1           0        1.783501   -0.562962    1.874123
     18          8           0        0.107378   -1.182379    0.955809
     19          6           0        1.022701    1.874476    1.485333
     20          1           0        0.058392    1.599353    1.901861
     21          1           0        1.789794    1.819670    2.266709
     22          8           0        0.909573    3.195645    0.991488
     23          1           0        1.734213    3.399907    0.535944
     24          6           0       -0.941635   -0.748834    0.147009
     25          1           0       -0.646350   -0.781392   -0.917108
     26          6           0       -2.350144    1.047717   -0.399461
     27          1           0       -2.027375    0.911818   -1.442064
     28          8           0       -1.336905    0.553958    0.481282
     29          6           0       -2.112310   -1.692702    0.393589
     30          1           0       -2.354900   -1.639020    1.462434
     31          8           0       -1.832106   -3.018556   -0.005551
     32          1           0       -1.199630   -3.384182    0.617531
     33          6           0       -3.308506   -1.231243   -0.418126
     34          1           0       -3.064746   -1.342421   -1.485522
     35          8           0       -4.468199   -1.971956   -0.103526
     36          1           0       -4.261587   -2.900540   -0.249747
     37          6           0       -3.617160    0.234930   -0.161799
     38          1           0       -3.927885    0.350950    0.886902
     39          8           0       -4.617254    0.689836   -1.041704
     40          1           0       -5.341015    0.056808   -0.989324
     41          6           0       -2.491836    2.537419   -0.162184
     42          1           0       -3.384751    2.875179   -0.690870
     43          1           0       -2.636926    2.713816    0.911774
     44          8           0       -1.387462    3.238130   -0.675435
     45          1           0       -0.664515    3.241988   -0.032031
 ---------------------------------------------------------------------
 Rotational constants (GHZ):           0.3841170           0.1707763           0.1300946
 Leave Link  202 at Thu Mar 16 18:22:51 2023, MaxMem=   262144000 cpu:               1.0 elap:               0.2
 (Enter /dragofs/sw/campus/0.2/software/gaussian/16.gaussian/gaussian/g16_legacy/l301.exe)
 Standard basis: 6-311G(d,p) (5D, 7F)
 Ernie: Thresh=  0.10000D-02 Tol=  0.10000D-05 Strict=F.
 There are   569 symmetry adapted cartesian basis functions of A   symmetry.
 There are   546 symmetry adapted basis functions of A   symmetry.
   546 basis functions,   912 primitive gaussians,   569 cartesian basis functions
    91 alpha electrons       91 beta electrons
       nuclear repulsion energy      2349.7899763999 Hartrees.
 IExCor= 4336 DFT=T Ex+Corr=M062X ExCW=0 ScaHFX=  0.540000
 ScaDFX=  1.000000  1.000000  1.000000  1.000000 ScalE2=  1.000000  1.000000
 IRadAn=      5 IRanWt=     -1 IRanGd=            0 ICorTp=0 IEmpDi=  4
 NAtoms=   45 NActive=   45 NUniq=   45 SFac= 1.00D+00 NAtFMM=   60 NAOKFM=F Big=F
 Integral buffers will be    131072 words long.
 Raffenetti 2 integral format.
 Two-electron integral symmetry is turned on.
 Leave Link  301 at Thu Mar 16 18:22:51 2023, MaxMem=   262144000 cpu:               0.9 elap:               0.2
 (Enter /dragofs/sw/campus/0.2/software/gaussian/16.gaussian/gaussian/g16_legacy/l302.exe)
 NPDir=0 NMtPBC=     1 NCelOv=     1 NCel=       1 NClECP=     1 NCelD=      1
         NCelK=      1 NCelE2=     1 NClLst=     1 CellRange=     0.0.
 One-electron integrals computed using PRISM.
 One-electron integral symmetry used in STVInt
 NBasis=   546 RedAO= T EigKep=  7.01D-04  NBF=   546
 NBsUse=   546 1.00D-06 EigRej= -1.00D+00 NBFU=   546
 Precomputing XC quadrature grid using
 IXCGrd= 4 IRadAn=           5 IRanWt=          -1 IRanGd=           0 AccXCQ= 0.00D+00.
 Generated NRdTot=       0 NPtTot=           0 NUsed=           0 NTot=          32
 NSgBfM=   567   567   567   567   567 MxSgAt=    45 MxSgA2=    45.
 Leave Link  302 at Thu Mar 16 18:22:58 2023, MaxMem=   262144000 cpu:              30.5 elap:               6.1
 (Enter /dragofs/sw/campus/0.2/software/gaussian/16.gaussian/gaussian/g16_legacy/l303.exe)
 DipDrv:  MaxL=1.
 Leave Link  303 at Thu Mar 16 18:22:58 2023, MaxMem=   262144000 cpu:               2.7 elap:               0.6
 (Enter /dragofs/sw/campus/0.2/software/gaussian/16.gaussian/gaussian/g16_legacy/l401.exe)
 ExpMin= 1.03D-01 ExpMax= 8.59D+03 ExpMxC= 1.30D+03 IAcc=3 IRadAn=         5 AccDes= 0.00D+00
 Harris functional with IExCor= 1009 and IRadAn=       5 diagonalized for initial guess.
 HarFok:  IExCor= 1009 AccDes= 0.00D+00 IRadAn=         5 IDoV= 1 UseB2=F ITyADJ=14
 ICtDFT=  3500011 ScaDFX=  1.000000  1.000000  1.000000  1.000000
 FoFCou: FMM=F IPFlag=           0 FMFlag=      100000 FMFlg1=           0
         NFxFlg=           0 DoJE=T BraDBF=F KetDBF=T FulRan=T
         wScrn=  0.000000 ICntrl=       500 IOpCl=  0 I1Cent=   200000004 NGrid=           0
         NMat0=    1 NMatS0=      1 NMatT0=    0 NMatD0=    1 NMtDS0=    0 NMtDT0=    0
 Petite list used in FoFCou.
 Harris En= -1297.11727697222    
 JPrj=0 DoOrth=F DoCkMO=F.
 Leave Link  401 at Thu Mar 16 18:23:05 2023, MaxMem=   262144000 cpu:              48.9 elap:               7.3
 (Enter /dragofs/sw/campus/0.2/software/gaussian/16.gaussian/gaussian/g16_legacy/l502.exe)
 Integral symmetry usage will be decided dynamically.
 Closed shell SCF:
 Using DIIS extrapolation, IDIIS=  1040.
 NGot=   262144000 LenX=   261486196 LenY=   261161866
 Requested convergence on RMS density matrix=1.00D-08 within 128 cycles.
 Requested convergence on MAX density matrix=1.00D-06.
 Requested convergence on             energy=1.00D-06.
 No special actions if energy rises.
 Fock matrices will be formed incrementally for  20 cycles.
 Integral accuracy reduced to 1.0D-05 until final iterations.

 Cycle   1  Pass 0  IDiag  1:
 FoFJK:  IHMeth= 1 ICntrl=       0 DoSepK=F KAlg= 0 I1Cent=           0 FoldK=F
 IRaf= 760000000 NMat=       1 IRICut=       1 DoRegI=T DoRafI=F ISym2E= 0 IDoP0=0 IntGTp=1.
 FoFCou: FMM=F IPFlag=           0 FMFlag=      100000 FMFlg1=           0
         NFxFlg=           0 DoJE=F BraDBF=F KetDBF=F FulRan=T
         wScrn=  0.000000 ICntrl=         0 IOpCl=  0 I1Cent=           0 NGrid=           0
         NMat0=    1 NMatS0=      1 NMatT0=    0 NMatD0=    1 NMtDS0=    0 NMtDT0=    0
 Symmetry not used in FoFCou.
 E= -1297.33486427199    
 DIIS: error= 2.13D-02 at cycle   1 NSaved=   1.
 NSaved= 1 IEnMin= 1 EnMin= -1297.33486427199     IErMin= 1 ErrMin= 2.13D-02
 ErrMax= 2.13D-02  0.00D+00 EMaxC= 1.00D-01 BMatC= 8.49D-01 BMatP= 8.49D-01
 IDIUse=3 WtCom= 7.87D-01 WtEn= 2.13D-01
 Coeff-Com:  0.100D+01
 Coeff-En:   0.100D+01
 Coeff:      0.100D+01
 Gap=     0.395 Goal=   None    Shift=    0.000
 GapD=    0.395 DampG=1.000 DampE=0.500 DampFc=0.5000 IDamp=-1.
 Damping current iteration by 5.00D-01
 RMSDP=2.59D-03 MaxDP=1.81D-01              OVMax= 1.14D-01

 Cycle   2  Pass 0  IDiag  1:
 RMSU=  1.29D-03    CP:  1.01D+00
 E= -1297.57708175414     Delta-E=       -0.242217482150 Rises=F Damp=T
 DIIS: error= 6.60D-03 at cycle   2 NSaved=   2.
 NSaved= 2 IEnMin= 2 EnMin= -1297.57708175414     IErMin= 2 ErrMin= 6.60D-03
 ErrMax= 6.60D-03  0.00D+00 EMaxC= 1.00D-01 BMatC= 6.94D-02 BMatP= 8.49D-01
 IDIUse=3 WtCom= 9.34D-01 WtEn= 6.60D-02
 Coeff-Com: -0.945D-01 0.109D+01
 Coeff-En:   0.000D+00 0.100D+01
 Coeff:     -0.883D-01 0.109D+01
 Gap=     0.369 Goal=   None    Shift=    0.000
 RMSDP=4.57D-04 MaxDP=1.50D-02 DE=-2.42D-01 OVMax= 5.66D-02

 Cycle   3  Pass 0  IDiag  1:
 RMSU=  4.53D-04    CP:  1.01D+00  9.51D-01
 E= -1297.81090520628     Delta-E=       -0.233823452135 Rises=F Damp=F
 DIIS: error= 3.23D-03 at cycle   3 NSaved=   3.
 NSaved= 3 IEnMin= 3 EnMin= -1297.81090520628     IErMin= 3 ErrMin= 3.23D-03
 ErrMax= 3.23D-03  0.00D+00 EMaxC= 1.00D-01 BMatC= 1.90D-02 BMatP= 6.94D-02
 IDIUse=3 WtCom= 9.68D-01 WtEn= 3.23D-02
 Coeff-Com: -0.110D+00 0.358D+00 0.751D+00
 Coeff-En:   0.000D+00 0.000D+00 0.100D+01
 Coeff:     -0.106D+00 0.347D+00 0.760D+00
 Gap=     0.369 Goal=   None    Shift=    0.000
 RMSDP=2.55D-04 MaxDP=9.80D-03 DE=-2.34D-01 OVMax= 1.25D-02

 Cycle   4  Pass 0  IDiag  1:
 RMSU=  1.87D-04    CP:  1.02D+00  1.04D+00  7.30D-01
 E= -1297.82190494907     Delta-E=       -0.010999742789 Rises=F Damp=F
 DIIS: error= 1.22D-03 at cycle   4 NSaved=   4.
 NSaved= 4 IEnMin= 4 EnMin= -1297.82190494907     IErMin= 4 ErrMin= 1.22D-03
 ErrMax= 1.22D-03  0.00D+00 EMaxC= 1.00D-01 BMatC= 2.62D-03 BMatP= 1.90D-02
 IDIUse=3 WtCom= 9.88D-01 WtEn= 1.22D-02
 Coeff-Com: -0.394D-01 0.923D-01 0.352D+00 0.595D+00
 Coeff-En:   0.000D+00 0.000D+00 0.751D-01 0.925D+00
 Coeff:     -0.389D-01 0.912D-01 0.349D+00 0.599D+00
 Gap=     0.358 Goal=   None    Shift=    0.000
 RMSDP=9.83D-05 MaxDP=3.43D-03 DE=-1.10D-02 OVMax= 4.48D-03

 Cycle   5  Pass 0  IDiag  1:
 RMSU=  3.49D-05    CP:  1.01D+00  1.03D+00  8.22D-01  5.76D-01
 E= -1297.82419126302     Delta-E=       -0.002286313952 Rises=F Damp=F
 DIIS: error= 1.41D-04 at cycle   5 NSaved=   5.
 NSaved= 5 IEnMin= 5 EnMin= -1297.82419126302     IErMin= 5 ErrMin= 1.41D-04
 ErrMax= 1.41D-04  0.00D+00 EMaxC= 1.00D-01 BMatC= 2.97D-05 BMatP= 2.62D-03
 IDIUse=3 WtCom= 9.99D-01 WtEn= 1.41D-03
 Coeff-Com: -0.606D-02 0.108D-01 0.621D-01 0.156D+00 0.777D+00
 Coeff-En:   0.000D+00 0.000D+00 0.000D+00 0.000D+00 0.100D+01
 Coeff:     -0.605D-02 0.108D-01 0.620D-01 0.156D+00 0.777D+00
 Gap=     0.359 Goal=   None    Shift=    0.000
 RMSDP=1.35D-05 MaxDP=6.04D-04 DE=-2.29D-03 OVMax= 5.60D-04

 Cycle   6  Pass 0  IDiag  1:
 RMSU=  9.05D-06    CP:  1.01D+00  1.03D+00  8.26D-01  6.19D-01  8.41D-01
 E= -1297.82421177333     Delta-E=       -0.000020510309 Rises=F Damp=F
 DIIS: error= 5.29D-05 at cycle   6 NSaved=   6.
 NSaved= 6 IEnMin= 6 EnMin= -1297.82421177333     IErMin= 6 ErrMin= 5.29D-05
 ErrMax= 5.29D-05  0.00D+00 EMaxC= 1.00D-01 BMatC= 5.03D-06 BMatP= 2.97D-05
 IDIUse=1 WtCom= 1.00D+00 WtEn= 0.00D+00
 Coeff-Com: -0.788D-03 0.395D-03 0.113D-01 0.432D-01 0.343D+00 0.603D+00
 Coeff:     -0.788D-03 0.395D-03 0.113D-01 0.432D-01 0.343D+00 0.603D+00
 Gap=     0.359 Goal=   None    Shift=    0.000
 RMSDP=4.14D-06 MaxDP=2.39D-04 DE=-2.05D-05 OVMax= 2.46D-04

 Initial convergence to 1.0D-05 achieved.  Increase integral accuracy.
 Cycle   7  Pass 1  IDiag  1:
 E= -1297.82419929164     Delta-E=        0.000012481688 Rises=F Damp=F
 DIIS: error= 2.86D-05 at cycle   1 NSaved=   1.
 NSaved= 1 IEnMin= 1 EnMin= -1297.82419929164     IErMin= 1 ErrMin= 2.86D-05
 ErrMax= 2.86D-05  0.00D+00 EMaxC= 1.00D-01 BMatC= 1.08D-06 BMatP= 1.08D-06
 IDIUse=1 WtCom= 1.00D+00 WtEn= 0.00D+00
 Coeff-Com:  0.100D+01
 Coeff:      0.100D+01
 Gap=     0.359 Goal=   None    Shift=    0.000
 RMSDP=4.14D-06 MaxDP=2.39D-04 DE= 1.25D-05 OVMax= 1.44D-04

 Cycle   8  Pass 1  IDiag  1:
 RMSU=  1.21D-05    CP:  1.00D+00
 E= -1297.82419981329     Delta-E=       -0.000000521651 Rises=F Damp=F
 DIIS: error= 2.41D-05 at cycle   2 NSaved=   2.
 NSaved= 2 IEnMin= 2 EnMin= -1297.82419981329     IErMin= 2 ErrMin= 2.41D-05
 ErrMax= 2.41D-05  0.00D+00 EMaxC= 1.00D-01 BMatC= 6.62D-07 BMatP= 1.08D-06
 IDIUse=1 WtCom= 1.00D+00 WtEn= 0.00D+00
 Coeff-Com:  0.422D+00 0.578D+00
 Coeff:      0.422D+00 0.578D+00
 Gap=     0.359 Goal=   None    Shift=    0.000
 RMSDP=1.51D-06 MaxDP=1.11D-04 DE=-5.22D-07 OVMax= 9.31D-05

 Cycle   9  Pass 1  IDiag  1:
 RMSU=  1.51D-06    CP:  1.00D+00  1.00D+00
 E= -1297.82420019758     Delta-E=       -0.000000384295 Rises=F Damp=F
 DIIS: error= 8.41D-06 at cycle   3 NSaved=   3.
 NSaved= 3 IEnMin= 3 EnMin= -1297.82420019758     IErMin= 3 ErrMin= 8.41D-06
 ErrMax= 8.41D-06  0.00D+00 EMaxC= 1.00D-01 BMatC= 8.46D-08 BMatP= 6.62D-07
 IDIUse=1 WtCom= 1.00D+00 WtEn= 0.00D+00
 Coeff-Com: -0.276D-01 0.252D+00 0.775D+00
 Coeff:     -0.276D-01 0.252D+00 0.775D+00
 Gap=     0.359 Goal=   None    Shift=    0.000
 RMSDP=5.06D-07 MaxDP=3.26D-05 DE=-3.84D-07 OVMax= 2.63D-05

 Cycle  10  Pass 1  IDiag  1:
 RMSU=  2.50D-07    CP:  1.00D+00  1.03D+00  7.75D-01
 E= -1297.82420025500     Delta-E=       -0.000000057417 Rises=F Damp=F
 DIIS: error= 7.39D-07 at cycle   4 NSaved=   4.
 NSaved= 4 IEnMin= 4 EnMin= -1297.82420025500     IErMin= 4 ErrMin= 7.39D-07
 ErrMax= 7.39D-07  0.00D+00 EMaxC= 1.00D-01 BMatC= 9.31D-10 BMatP= 8.46D-08
 IDIUse=1 WtCom= 1.00D+00 WtEn= 0.00D+00
 Coeff-Com: -0.136D-01 0.723D-01 0.245D+00 0.696D+00
 Coeff:     -0.136D-01 0.723D-01 0.245D+00 0.696D+00
 Gap=     0.359 Goal=   None    Shift=    0.000
 RMSDP=8.06D-08 MaxDP=3.57D-06 DE=-5.74D-08 OVMax= 4.41D-06

 Cycle  11  Pass 1  IDiag  1:
 RMSU=  7.82D-08    CP:  1.00D+00  1.03D+00  7.85D-01  9.85D-01
 E= -1297.82420025573     Delta-E=       -0.000000000733 Rises=F Damp=F
 DIIS: error= 3.14D-07 at cycle   5 NSaved=   5.
 NSaved= 5 IEnMin= 5 EnMin= -1297.82420025573     IErMin= 5 ErrMin= 3.14D-07
 ErrMax= 3.14D-07  0.00D+00 EMaxC= 1.00D-01 BMatC= 1.93D-10 BMatP= 9.31D-10
 IDIUse=1 WtCom= 1.00D+00 WtEn= 0.00D+00
 Coeff-Com: -0.841D-03-0.129D-01-0.310D-01 0.286D+00 0.759D+00
 Coeff:     -0.841D-03-0.129D-01-0.310D-01 0.286D+00 0.759D+00
 Gap=     0.359 Goal=   None    Shift=    0.000
 RMSDP=2.95D-08 MaxDP=1.86D-06 DE=-7.33D-10 OVMax= 2.06D-06

 Cycle  12  Pass 1  IDiag  1:
 RMSU=  1.78D-08    CP:  1.00D+00  1.03D+00  7.88D-01  1.07D+00  9.15D-01
 E= -1297.82420025589     Delta-E=       -0.000000000158 Rises=F Damp=F
 DIIS: error= 9.40D-08 at cycle   6 NSaved=   6.
 NSaved= 6 IEnMin= 6 EnMin= -1297.82420025589     IErMin= 6 ErrMin= 9.40D-08
 ErrMax= 9.40D-08  0.00D+00 EMaxC= 1.00D-01 BMatC= 1.39D-11 BMatP= 1.93D-10
 IDIUse=1 WtCom= 1.00D+00 WtEn= 0.00D+00
 Coeff-Com:  0.920D-03-0.114D-01-0.344D-01 0.477D-01 0.282D+00 0.716D+00
 Coeff:      0.920D-03-0.114D-01-0.344D-01 0.477D-01 0.282D+00 0.716D+00
 Gap=     0.359 Goal=   None    Shift=    0.000
 RMSDP=8.72D-09 MaxDP=3.46D-07 DE=-1.58D-10 OVMax= 5.36D-07

 SCF Done:  E(RM062X) =  -1297.82420026     A.U. after   12 cycles
            NFock= 12  Conv=0.87D-08     -V/T= 2.0029
 KE= 1.294079507957D+03 PE=-7.747176366826D+03 EE= 2.805482682213D+03
 Leave Link  502 at Thu Mar 16 18:26:18 2023, MaxMem=   262144000 cpu:            1514.6 elap:             193.0
 (Enter /dragofs/sw/campus/0.2/software/gaussian/16.gaussian/gaussian/g16_legacy/l601.exe)
 Copying SCF densities to generalized density rwf, IOpCl= 0 IROHF=0.

 **********************************************************************

            Population analysis using the SCF density.

 **********************************************************************

 Orbital symmetries:
       Occupied  (A) (A) (A) (A) (A) (A) (A) (A) (A) (A) (A) (A)
                 (A) (A) (A) (A) (A) (A) (A) (A) (A) (A) (A) (A)
                 (A) (A) (A) (A) (A) (A) (A) (A) (A) (A) (A) (A)
                 (A) (A) (A) (A) (A) (A) (A) (A) (A) (A) (A) (A)
                 (A) (A) (A) (A) (A) (A) (A) (A) (A) (A) (A) (A)
                 (A) (A) (A) (A) (A) (A) (A) (A) (A) (A) (A) (A)
                 (A) (A) (A) (A) (A) (A) (A) (A) (A) (A) (A) (A)
                 (A) (A) (A) (A) (A) (A) (A)
       Virtual   (A) (A) (A) (A) (A) (A) (A) (A) (A) (A) (A) (A)
                 (A) (A) (A) (A) (A) (A) (A) (A) (A) (A) (A) (A)
                 (A) (A) (A) (A) (A) (A) (A) (A) (A) (A) (A) (A)
                 (A) (A) (A) (A) (A) (A) (A) (A) (A) (A) (A) (A)
                 (A) (A) (A) (A) (A) (A) (A) (A) (A) (A) (A) (A)
                 (A) (A) (A) (A) (A) (A) (A) (A) (A) (A) (A) (A)
                 (A) (A) (A) (A) (A) (A) (A) (A) (A) (A) (A) (A)
                 (A) (A) (A) (A) (A) (A) (A) (A) (A) (A) (A) (A)
                 (A) (A) (A) (A) (A) (A) (A) (A) (A) (A) (A) (A)
                 (A) (A) (A) (A) (A) (A) (A) (A) (A) (A) (A) (A)
                 (A) (A) (A) (A) (A) (A) (A) (A) (A) (A) (A) (A)
                 (A) (A) (A) (A) (A) (A) (A) (A) (A) (A) (A) (A)
                 (A) (A) (A) (A) (A) (A) (A) (A) (A) (A) (A) (A)
                 (A) (A) (A) (A) (A) (A) (A) (A) (A) (A) (A) (A)
                 (A) (A) (A) (A) (A) (A) (A) (A) (A) (A) (A) (A)
                 (A) (A) (A) (A) (A) (A) (A) (A) (A) (A) (A) (A)
                 (A) (A) (A) (A) (A) (A) (A) (A) (A) (A) (A) (A)
                 (A) (A) (A) (A) (A) (A) (A) (A) (A) (A) (A) (A)
                 (A) (A) (A) (A) (A) (A) (A) (A) (A) (A) (A) (A)
                 (A) (A) (A) (A) (A) (A) (A) (A) (A) (A) (A) (A)
                 (A) (A) (A) (A) (A) (A) (A) (A) (A) (A) (A) (A)
                 (A) (A) (A) (A) (A) (A) (A) (A) (A) (A) (A) (A)
                 (A) (A) (A) (A) (A) (A) (A) (A) (A) (A) (A) (A)
                 (A) (A) (A) (A) (A) (A) (A) (A) (A) (A) (A) (A)
                 (A) (A) (A) (A) (A) (A) (A) (A) (A) (A) (A) (A)
                 (A) (A) (A) (A) (A) (A) (A) (A) (A) (A) (A) (A)
                 (A) (A) (A) (A) (A) (A) (A) (A) (A) (A) (A) (A)
                 (A) (A) (A) (A) (A) (A) (A) (A) (A) (A) (A) (A)
                 (A) (A) (A) (A) (A) (A) (A) (A) (A) (A) (A) (A)
                 (A) (A) (A) (A) (A) (A) (A) (A) (A) (A) (A) (A)
                 (A) (A) (A) (A) (A) (A) (A) (A) (A) (A) (A) (A)
                 (A) (A) (A) (A) (A) (A) (A) (A) (A) (A) (A) (A)
                 (A) (A) (A) (A) (A) (A) (A) (A) (A) (A) (A) (A)
                 (A) (A) (A) (A) (A) (A) (A) (A) (A) (A) (A) (A)
                 (A) (A) (A) (A) (A) (A) (A) (A) (A) (A) (A) (A)
                 (A) (A) (A) (A) (A) (A) (A) (A) (A) (A) (A) (A)
                 (A) (A) (A) (A) (A) (A) (A) (A) (A) (A) (A) (A)
                 (A) (A) (A) (A) (A) (A) (A) (A) (A) (A) (A)
 The electronic state is 1-A.
 Alpha  occ. eigenvalues --  -19.66712 -19.65219 -19.64840 -19.64762 -19.64509
 Alpha  occ. eigenvalues --  -19.63587 -19.63573 -19.63459 -19.62825 -19.62474
 Alpha  occ. eigenvalues --  -19.59278 -10.66586 -10.65509 -10.62124 -10.61506
 Alpha  occ. eigenvalues --  -10.61237 -10.61052 -10.60576 -10.60468 -10.60041
 Alpha  occ. eigenvalues --  -10.59947 -10.59396 -10.57745  -1.23654  -1.21984
 Alpha  occ. eigenvalues --   -1.18853  -1.18523  -1.17522  -1.16931  -1.16399
 Alpha  occ. eigenvalues --   -1.15447  -1.14863  -1.14502  -1.12450  -0.92260
 Alpha  occ. eigenvalues --   -0.90191  -0.88947  -0.87872  -0.80771  -0.78574
 Alpha  occ. eigenvalues --   -0.76313  -0.73905  -0.72286  -0.71455  -0.69970
 Alpha  occ. eigenvalues --   -0.69244  -0.65268  -0.64855  -0.64459  -0.62173
 Alpha  occ. eigenvalues --   -0.61901  -0.60790  -0.59869  -0.58937  -0.58654
 Alpha  occ. eigenvalues --   -0.57715  -0.57015  -0.56096  -0.55915  -0.54795
 Alpha  occ. eigenvalues --   -0.53843  -0.53579  -0.51941  -0.51570  -0.50770
 Alpha  occ. eigenvalues --   -0.50500  -0.49463  -0.48269  -0.47686  -0.47056
 Alpha  occ. eigenvalues --   -0.46136  -0.46035  -0.45433  -0.44879  -0.44021
 Alpha  occ. eigenvalues --   -0.43294  -0.42320  -0.42020  -0.41369  -0.40442
 Alpha  occ. eigenvalues --   -0.39411  -0.38818  -0.38241  -0.37425  -0.37332
 Alpha  occ. eigenvalues --   -0.36669  -0.35997  -0.35558  -0.35110  -0.34283
 Alpha  occ. eigenvalues --   -0.33202
 Alpha virt. eigenvalues --    0.02701   0.05069   0.06709   0.06975   0.07442
 Alpha virt. eigenvalues --    0.08132   0.08839   0.09410   0.10461   0.10680
 Alpha virt. eigenvalues --    0.11619   0.11820   0.12822   0.13289   0.13475
 Alpha virt. eigenvalues --    0.14204   0.14745   0.15277   0.16343   0.16984
 Alpha virt. eigenvalues --    0.17464   0.18271   0.18813   0.19621   0.19769
 Alpha virt. eigenvalues --    0.21036   0.21891   0.22901   0.23397   0.23832
 Alpha virt. eigenvalues --    0.24533   0.25091   0.26180   0.27068   0.27810
 Alpha virt. eigenvalues --    0.28425   0.29442   0.30309   0.30433   0.32101
 Alpha virt. eigenvalues --    0.33782   0.34001   0.34177   0.35423   0.36091
 Alpha virt. eigenvalues --    0.37333   0.38248   0.39410   0.39480   0.41343
 Alpha virt. eigenvalues --    0.41800   0.41875   0.42737   0.43511   0.44210
 Alpha virt. eigenvalues --    0.44896   0.46335   0.47009   0.47471   0.47810
 Alpha virt. eigenvalues --    0.48579   0.48752   0.49468   0.50045   0.50697
 Alpha virt. eigenvalues --    0.51180   0.51863   0.52160   0.53135   0.53715
 Alpha virt. eigenvalues --    0.54573   0.55223   0.55970   0.56369   0.56675
 Alpha virt. eigenvalues --    0.57246   0.57900   0.58625   0.59188   0.59542
 Alpha virt. eigenvalues --    0.60341   0.60740   0.61689   0.62096   0.62460
 Alpha virt. eigenvalues --    0.62984   0.63054   0.64083   0.64467   0.64681
 Alpha virt. eigenvalues --    0.65544   0.65904   0.66084   0.66806   0.67002
 Alpha virt. eigenvalues --    0.67537   0.68341   0.68847   0.70358   0.70573
 Alpha virt. eigenvalues --    0.71995   0.72448   0.74665   0.76204   0.78690
 Alpha virt. eigenvalues --    0.81029   0.82743   0.84031   0.85458   0.86649
 Alpha virt. eigenvalues --    0.87659   0.89008   0.89420   0.90019   0.91292
 Alpha virt. eigenvalues --    0.91835   0.92404   0.93439   0.94726   0.95690
 Alpha virt. eigenvalues --    0.96424   0.97185   0.98012   0.98968   0.99849
 Alpha virt. eigenvalues --    1.00684   1.01184   1.01398   1.01766   1.03710
 Alpha virt. eigenvalues --    1.04202   1.05822   1.06736   1.07994   1.08420
 Alpha virt. eigenvalues --    1.09174   1.11514   1.12019   1.12422   1.13092
 Alpha virt. eigenvalues --    1.13619   1.15015   1.15689   1.16999   1.17452
 Alpha virt. eigenvalues --    1.17786   1.20067   1.20635   1.21316   1.22605
 Alpha virt. eigenvalues --    1.23775   1.25747   1.26952   1.27335   1.29098
 Alpha virt. eigenvalues --    1.30555   1.31005   1.33734   1.34750   1.35833
 Alpha virt. eigenvalues --    1.37860   1.38383   1.39877   1.40523   1.41225
 Alpha virt. eigenvalues --    1.42286   1.43000   1.43500   1.44048   1.45229
 Alpha virt. eigenvalues --    1.45940   1.46927   1.49001   1.49256   1.49841
 Alpha virt. eigenvalues --    1.50137   1.50841   1.51647   1.51838   1.52534
 Alpha virt. eigenvalues --    1.53381   1.53975   1.55466   1.55937   1.56512
 Alpha virt. eigenvalues --    1.56817   1.57734   1.58187   1.58221   1.59078
 Alpha virt. eigenvalues --    1.59286   1.60329   1.60659   1.61977   1.62535
 Alpha virt. eigenvalues --    1.62755   1.63798   1.64767   1.65261   1.65533
 Alpha virt. eigenvalues --    1.66043   1.67099   1.68532   1.68960   1.70706
 Alpha virt. eigenvalues --    1.71319   1.71939   1.72209   1.73114   1.73374
 Alpha virt. eigenvalues --    1.75022   1.75374   1.76317   1.77223   1.78118
 Alpha virt. eigenvalues --    1.79027   1.81033   1.81905   1.82063   1.83341
 Alpha virt. eigenvalues --    1.83855   1.85517   1.86366   1.87264   1.88455
 Alpha virt. eigenvalues --    1.88785   1.89247   1.89974   1.90823   1.92733
 Alpha virt. eigenvalues --    1.94338   1.95269   1.96182   1.97401   1.97769
 Alpha virt. eigenvalues --    1.98811   1.99790   2.01405   2.02219   2.03955
 Alpha virt. eigenvalues --    2.04653   2.05337   2.06061   2.06916   2.07831
 Alpha virt. eigenvalues --    2.08863   2.10119   2.10746   2.11398   2.12043
 Alpha virt. eigenvalues --    2.12772   2.13166   2.15271   2.15726   2.16401
 Alpha virt. eigenvalues --    2.16799   2.17553   2.18319   2.19284   2.20562
 Alpha virt. eigenvalues --    2.22551   2.22830   2.24670   2.25136   2.25442
 Alpha virt. eigenvalues --    2.30057   2.31002   2.31773   2.32421   2.33179
 Alpha virt. eigenvalues --    2.35594   2.36969   2.43489   2.44182   2.45138
 Alpha virt. eigenvalues --    2.45975   2.46095   2.49033   2.50477   2.51584
 Alpha virt. eigenvalues --    2.52270   2.52932   2.53949   2.54619   2.55469
 Alpha virt. eigenvalues --    2.56366   2.57818   2.58832   2.59540   2.60335
 Alpha virt. eigenvalues --    2.61304   2.62342   2.62810   2.65781   2.68685
 Alpha virt. eigenvalues --    2.69773   2.75589   2.76061   2.77675   2.78422
 Alpha virt. eigenvalues --    2.78735   2.80798   2.81775   2.83223   2.84902
 Alpha virt. eigenvalues --    2.85970   2.86180   2.88122   2.89775   2.90448
 Alpha virt. eigenvalues --    2.92850   2.94636   2.96471   2.97017   2.98922
 Alpha virt. eigenvalues --    2.99799   3.00301   3.01260   3.01508   3.04318
 Alpha virt. eigenvalues --    3.04841   3.05540   3.06526   3.06988   3.09748
 Alpha virt. eigenvalues --    3.10694   3.12771   3.13612   3.15807   3.15827
 Alpha virt. eigenvalues --    3.17629   3.17976   3.19128   3.19486   3.19655
 Alpha virt. eigenvalues --    3.20711   3.21893   3.22765   3.23125   3.23522
 Alpha virt. eigenvalues --    3.24092   3.24502   3.25320   3.25767   3.27185
 Alpha virt. eigenvalues --    3.30900   3.31073   3.31784   3.34194   3.35084
 Alpha virt. eigenvalues --    3.35775   3.36822   3.38018   3.38600   3.39400
 Alpha virt. eigenvalues --    3.42040   3.42543   3.43310   3.43471   3.45318
[...]
    31  O   -0.000001   0.000008  -0.000000   0.000000   0.000000  -0.050608
    32  H   -0.000009   0.000003  -0.000000   0.000000   0.000000  -0.003380
    33  C    0.000004  -0.000027  -0.000002  -0.000000   0.000000  -0.067925
    34  H   -0.000000  -0.000006  -0.000000   0.000000   0.000000  -0.001326
    35  O   -0.000000  -0.000000   0.000000  -0.000000  -0.000000   0.006808
    36  H   -0.000000  -0.000000   0.000000  -0.000000  -0.000000   0.001749
    37  C    0.000063   0.000069   0.000005  -0.000006  -0.000002   0.008153
    38  H   -0.000029   0.000031   0.000000   0.000002   0.000000   0.000588
    39  O    0.000000   0.000001  -0.000000  -0.000000   0.000000  -0.000496
    40  H    0.000000   0.000000   0.000000  -0.000000  -0.000000  -0.000366
    41  C    0.001365   0.000801  -0.000035  -0.000462   0.000066   0.003766
    42  H    0.000065   0.000078  -0.000000  -0.000079   0.000001  -0.000204
    43  H   -0.000469   0.000369  -0.000005   0.000452  -0.000001  -0.001330
    44  O    0.002582   0.000670  -0.000048  -0.011599   0.000811  -0.001406
    45  H   -0.007684  -0.004635   0.001698   0.045276  -0.005221   0.000809
              25         26         27         28         29         30
     1  C    0.000190  -0.000015  -0.000007  -0.000022   0.000003   0.000000
     2  H   -0.000074   0.000002   0.000029  -0.000105   0.000005   0.000001
     3  O    0.000002  -0.000000  -0.000000  -0.000000  -0.000000  -0.000000
     4  H    0.000000  -0.000000   0.000000  -0.000000   0.000000   0.000000
     5  C   -0.001306  -0.000444  -0.000145  -0.006954   0.000622  -0.000209
     6  H   -0.006619  -0.002074   0.001168   0.005393   0.000702  -0.000135
     7  O   -0.000026   0.000007  -0.000009   0.000120  -0.000001  -0.000000
     8  C   -0.000154   0.000002   0.000003   0.000015  -0.000038  -0.000004
     9  H   -0.000235   0.000001   0.000000   0.000001   0.000006  -0.000001
    10  O   -0.000127   0.000000   0.000000  -0.000000   0.000000   0.000000
    11  H   -0.000002  -0.000000   0.000000   0.000000   0.000002   0.000000
    12  C    0.008156  -0.000136   0.000006  -0.001158   0.000505   0.000002
    13  H   -0.011239  -0.000036   0.000015  -0.000008   0.001418  -0.000168
    14  O    0.000824   0.000003  -0.000003   0.000002  -0.000300  -0.000021
    15  H    0.002843   0.000038  -0.000012   0.000202  -0.002036   0.000438
    16  C   -0.015940   0.000470  -0.000042   0.002328   0.004689  -0.000546
    17  H   -0.000710   0.000010  -0.000000  -0.000444  -0.000006  -0.000105
    18  O   -0.050967   0.003564  -0.000025  -0.050949  -0.036175   0.001644
    19  C    0.000252  -0.000498  -0.000277  -0.006160  -0.000209  -0.000019
    20  H    0.002038  -0.001627   0.000391   0.010071  -0.000773   0.000694
    21  H   -0.000049  -0.000039  -0.000002   0.000380   0.000038  -0.000011
    22  O   -0.000006  -0.000251   0.000016   0.000017   0.000000  -0.000000
    23  H   -0.000001   0.000030   0.000002  -0.000186  -0.000002   0.000000
    24  C    0.384495  -0.085003  -0.012358   0.222956   0.179453  -0.050954
    25  H    0.643991   0.003190   0.008973  -0.052795  -0.076040   0.014082
    26  C    0.003190   5.506196   0.384787   0.197752  -0.008939   0.001777
    27  H    0.008973   0.384787   0.561724  -0.038904   0.002047   0.000279
    28  O   -0.052795   0.197752  -0.038904   8.216422  -0.036428   0.003221
    29  C   -0.076040  -0.008939   0.002047  -0.036428   5.321976   0.394079
    30  H    0.014082   0.001777   0.000279   0.003221   0.394079   0.537516
    31  O    0.011454   0.000193  -0.000108   0.001947   0.233476  -0.033144
    32  H   -0.001733   0.000007   0.000026   0.000073  -0.036847  -0.010396
    33  C   -0.000619  -0.026079  -0.014022  -0.008787   0.211702  -0.045703
    34  H    0.006117  -0.003050   0.005013   0.000682  -0.045539   0.009683
    35  O   -0.000126   0.002920  -0.000093  -0.000071  -0.042256   0.004821
    36  H   -0.000072  -0.000899  -0.000070  -0.000038  -0.010921  -0.001431
    37  C   -0.006588   0.105560  -0.059465  -0.034920  -0.068270  -0.002294
    38  H    0.000043  -0.045150   0.010633   0.002907   0.001085   0.006199
    39  O   -0.000160  -0.046760   0.009002   0.001452   0.006895   0.000014
    40  H   -0.000022   0.010910  -0.000826  -0.000253   0.001571  -0.000047
    41  C    0.000837   0.249438  -0.030656  -0.039353  -0.001475  -0.000102
    42  H    0.000085  -0.057212  -0.006629   0.004541  -0.000022   0.000014
    43  H   -0.000016  -0.063431   0.011807  -0.002228  -0.000057  -0.000019
    44  O   -0.000424  -0.060460   0.006218   0.000054  -0.000038   0.000004
    45  H    0.000043   0.002659  -0.001571   0.003779   0.000048  -0.000003
              31         32         33         34         35         36
     1  C   -0.000000  -0.000003  -0.000000   0.000000   0.000000   0.000000
     2  H    0.000000  -0.000000   0.000001   0.000001  -0.000000   0.000000
     3  O    0.000000   0.000000   0.000000  -0.000000  -0.000000   0.000000
     4  H   -0.000000   0.000000   0.000000   0.000000  -0.000000   0.000000
     5  C   -0.000000   0.000171   0.000025  -0.000018   0.000000   0.000000
     6  H   -0.000036   0.000007  -0.000235  -0.000046   0.000001  -0.000000
     7  O   -0.000000  -0.000001  -0.000000  -0.000000   0.000000  -0.000000
     8  C   -0.000004   0.000029  -0.000000  -0.000002  -0.000000   0.000000
     9  H    0.000000   0.000004   0.000000   0.000000   0.000000   0.000000
    10  O    0.000000  -0.000000   0.000000   0.000000  -0.000000  -0.000000
    11  H   -0.000000  -0.000005   0.000000   0.000000  -0.000000   0.000000
    12  C   -0.000787   0.000207  -0.000032  -0.000045  -0.000000   0.000000
    13  H   -0.000463   0.000104   0.000049  -0.000129   0.000000   0.000001
    14  O   -0.000343   0.000547  -0.000001  -0.000003   0.000000   0.000000
    15  H    0.011683   0.000735   0.000105   0.000114  -0.000003  -0.000020
    16  C   -0.000743  -0.000345  -0.000126   0.000072   0.000001   0.000001
    17  H    0.000013  -0.000036   0.000008  -0.000001  -0.000000   0.000000
    18  O   -0.001248   0.008520   0.003592  -0.000149  -0.000016  -0.000008
    19  C   -0.000001  -0.000009   0.000004  -0.000000  -0.000000  -0.000000
    20  H    0.000008   0.000003  -0.000027  -0.000006  -0.000000  -0.000000
    21  H   -0.000000  -0.000000  -0.000002  -0.000000   0.000000   0.000000
    22  O    0.000000   0.000000  -0.000000   0.000000  -0.000000  -0.000000
    23  H    0.000000   0.000000   0.000000   0.000000  -0.000000  -0.000000
    24  C   -0.050608  -0.003380  -0.067925  -0.001326   0.006808   0.001749
    25  H    0.011454  -0.001733  -0.000619   0.006117  -0.000126  -0.000072
    26  C    0.000193   0.000007  -0.026079  -0.003050   0.002920  -0.000899
    27  H   -0.000108   0.000026  -0.014022   0.005013  -0.000093  -0.000070
    28  O    0.001947   0.000073  -0.008787   0.000682  -0.000071  -0.000038
    29  C    0.233476  -0.036847   0.211702  -0.045539  -0.042256  -0.010921
    30  H   -0.033144  -0.010396  -0.045703   0.009683   0.004821  -0.001431
    31  O    7.976693   0.319413  -0.044837   0.000272  -0.001448   0.014540
    32  H    0.319413   0.441008   0.009076  -0.000787  -0.000363  -0.000591
    33  C   -0.044837   0.009076   5.294523   0.379339   0.243718  -0.041547
    34  H    0.000272  -0.000787   0.379339   0.565596  -0.035966  -0.005253
    35  O   -0.001448  -0.000363   0.243718  -0.035966   7.966613   0.324016
    36  H    0.014540  -0.000591  -0.041547  -0.005253   0.324016   0.436424
    37  C    0.003861  -0.000641   0.224907  -0.050320  -0.049323   0.012622
    38  H   -0.000218  -0.000021  -0.056754   0.011469   0.003306  -0.000789
    39  O   -0.000016   0.000006  -0.032909   0.007685  -0.003705  -0.000508
    40  H   -0.000020   0.000006  -0.005131  -0.001600   0.015802  -0.000908
    41  C    0.000007  -0.000002   0.005378  -0.000733  -0.000051   0.000019
    42  H    0.000000  -0.000000   0.000191   0.000022  -0.000002   0.000002
    43  H    0.000001   0.000000  -0.000559  -0.000048  -0.000002  -0.000003
    44  O   -0.000000   0.000000  -0.000172   0.000002   0.000000  -0.000000
    45  H   -0.000000  -0.000000   0.000077   0.000003  -0.000000   0.000000
              37         38         39         40         41         42
     1  C   -0.000000   0.000000  -0.000000  -0.000000   0.000001   0.000000
     2  H   -0.000003   0.000000   0.000000  -0.000000   0.000004  -0.000001
     3  O   -0.000000   0.000000  -0.000000  -0.000000  -0.000000  -0.000000
     4  H   -0.000000  -0.000000   0.000000   0.000000   0.000000  -0.000000
     5  C    0.000001  -0.000005  -0.000000  -0.000000  -0.000187  -0.000020
     6  H    0.001467   0.000021  -0.000008   0.000002  -0.001507   0.000154
     7  O    0.000000  -0.000000  -0.000000   0.000000   0.000000   0.000000
     8  C    0.000000   0.000000   0.000000   0.000000   0.000000   0.000000
     9  H   -0.000000  -0.000000   0.000000  -0.000000  -0.000000  -0.000000
    10  O   -0.000000  -0.000000   0.000000  -0.000000  -0.000000  -0.000000
    11  H    0.000000  -0.000000  -0.000000   0.000000  -0.000000  -0.000000
    12  C    0.000014  -0.000000   0.000000   0.000000  -0.000003   0.000001
    13  H   -0.000015  -0.000003   0.000001  -0.000000  -0.000013  -0.000001
    14  O   -0.000000  -0.000000  -0.000000   0.000000   0.000000  -0.000000
    15  H   -0.000002   0.000001   0.000000   0.000000   0.000001  -0.000000
    16  C   -0.000117   0.000006  -0.000000  -0.000000   0.000068  -0.000003
    17  H   -0.000001  -0.000001   0.000000  -0.000000  -0.000002  -0.000000
    18  O   -0.000554  -0.000067   0.000000   0.000000  -0.000162   0.000005
    19  C    0.000063  -0.000029   0.000000   0.000000   0.001365   0.000065
    20  H    0.000069   0.000031   0.000001   0.000000   0.000801   0.000078
    21  H    0.000005   0.000000  -0.000000   0.000000  -0.000035  -0.000000
    22  O   -0.000006   0.000002  -0.000000  -0.000000  -0.000462  -0.000079
    23  H   -0.000002   0.000000   0.000000  -0.000000   0.000066   0.000001
    24  C    0.008153   0.000588  -0.000496  -0.000366   0.003766  -0.000204
    25  H   -0.006588   0.000043  -0.000160  -0.000022   0.000837   0.000085
    26  C    0.105560  -0.045150  -0.046760   0.010910   0.249438  -0.057212
    27  H   -0.059465   0.010633   0.009002  -0.000826  -0.030656  -0.006629
    28  O   -0.034920   0.002907   0.001452  -0.000253  -0.039353   0.004541
    29  C   -0.068270   0.001085   0.006895   0.001571  -0.001475  -0.000022
    30  H   -0.002294   0.006199   0.000014  -0.000047  -0.000102   0.000014
    31  O    0.003861  -0.000218  -0.000016  -0.000020   0.000007   0.000000
    32  H   -0.000641  -0.000021   0.000006   0.000006  -0.000002  -0.000000
    33  C    0.224907  -0.056754  -0.032909  -0.005131   0.005378   0.000191
    34  H   -0.050320   0.011469   0.007685  -0.001600  -0.000733   0.000022
    35  O   -0.049323   0.003306  -0.003705   0.015802  -0.000051  -0.000002
    36  H    0.012622  -0.000789  -0.000508  -0.000908   0.000019   0.000002
    37  C    5.343689   0.380036   0.222884  -0.045947  -0.033950   0.001179
    38  H    0.380036   0.573838  -0.033112  -0.004822  -0.009782   0.000079
    39  O    0.222884  -0.033112   7.959754   0.320379  -0.002337   0.012118
    40  H   -0.045947  -0.004822   0.320379   0.440162  -0.000170  -0.000189
    41  C   -0.033950  -0.009782  -0.002337  -0.000170   4.824364   0.410175
    42  H    0.001179   0.000079   0.012118  -0.000189   0.410175   0.542644
    43  H   -0.001420   0.005786  -0.000312  -0.000095   0.408794  -0.034647
    44  O    0.005352  -0.000065   0.000010   0.000011   0.292468  -0.031131
    45  H   -0.001140  -0.000070  -0.000004  -0.000002  -0.042756   0.004855
              43         44         45
     1  C   -0.000000  -0.000005   0.000014
     2  H   -0.000001  -0.000103   0.000004
     3  O   -0.000000  -0.000000   0.000000
     4  H    0.000000  -0.000000  -0.000000
     5  C   -0.000028  -0.003237   0.000033
     6  H    0.000933   0.017151   0.000618
     7  O    0.000000   0.000012  -0.000349
     8  C    0.000000   0.000001  -0.000020
     9  H   -0.000000  -0.000000  -0.000001
    10  O   -0.000000  -0.000000   0.000000
    11  H    0.000000   0.000000  -0.000000
    12  C   -0.000001  -0.000002   0.000020
    13  H   -0.000000  -0.000019  -0.000001
    14  O   -0.000000  -0.000000  -0.000000
    15  H    0.000000   0.000000  -0.000000
    16  C    0.000001   0.000075  -0.000053
    17  H    0.000001  -0.000001   0.000021
    18  O   -0.000015   0.000003   0.000030
    19  C   -0.000469   0.002582  -0.007684
    20  H    0.000369   0.000670  -0.004635
    21  H   -0.000005  -0.000048   0.001698
    22  O    0.000452  -0.011599   0.045276
    23  H   -0.000001   0.000811  -0.005221
    24  C   -0.001330  -0.001406   0.000809
    25  H   -0.000016  -0.000424   0.000043
    26  C   -0.063431  -0.060460   0.002659
    27  H    0.011807   0.006218  -0.001571
    28  O   -0.002228   0.000054   0.003779
    29  C   -0.000057  -0.000038   0.000048
    30  H   -0.000019   0.000004  -0.000003
    31  O    0.000001  -0.000000  -0.000000
    32  H    0.000000   0.000000  -0.000000
    33  C   -0.000559  -0.000172   0.000077
    34  H   -0.000048   0.000002   0.000003
    35  O   -0.000002   0.000000  -0.000000
    36  H   -0.000003  -0.000000   0.000000
    37  C   -0.001420   0.005352  -0.001140
    38  H    0.005786  -0.000065  -0.000070
    39  O   -0.000312   0.000010  -0.000004
    40  H   -0.000095   0.000011  -0.000002
    41  C    0.408794   0.292468  -0.042756
    42  H   -0.034647  -0.031131   0.004855
    43  H    0.591807  -0.033612  -0.011081
    44  O   -0.033612   7.923655   0.321505
    45  H   -0.011081   0.321505   0.414598
 Mulliken charges:
               1
     1  C    0.227154
     2  H    0.153477
     3  O   -0.369327
     4  H    0.248887
     5  C   -0.086078
     6  H    0.157876
     7  O   -0.397611
     8  C    0.010111
     9  H    0.139050
    10  O   -0.405394
    11  H    0.267875
    12  C   -0.056050
    13  H    0.159640
    14  O   -0.425131
    15  H    0.259831
    16  C    0.011524
    17  H    0.180338
    18  O   -0.401226
    19  C   -0.018578
    20  H    0.164695
    21  H    0.143795
    22  O   -0.434547
    23  H    0.277698
    24  C    0.217577
    25  H    0.138437
    26  C   -0.067411
    27  H    0.163087
    28  O   -0.394551
    29  C    0.006052
    30  H    0.170843
    31  O   -0.439537
    32  H    0.275215
    33  C   -0.027224
    34  H    0.158951
    35  O   -0.434580
    36  H    0.273684
    37  C    0.045116
    38  H    0.154856
    39  O   -0.419872
    40  H    0.271556
    41  C   -0.033814
    42  H    0.153931
    43  H    0.129431
    44  O   -0.428261
    45  H    0.278504
 Sum of Mulliken charges =  -0.00000
 Mulliken charges with hydrogens summed into heavy atoms:
               1
     1  C    0.380631
     3  O   -0.120441
     5  C    0.071798
     7  O   -0.397611
     8  C    0.149161
    10  O   -0.137520
    12  C    0.103590
    14  O   -0.165300
    16  C    0.191862
    18  O   -0.401226
    19  C    0.289911
    22  O   -0.156849
    24  C    0.356014
    26  C    0.095676
    28  O   -0.394551
    29  C    0.176895
    31  O   -0.164322
    33  C    0.131727
    35  O   -0.160896
    37  C    0.199972
    39  O   -0.148316
    41  C    0.249548
    44  O   -0.149757
 Electronic spatial extent (au):  <R**2>=           7867.9085
 Charge=              0.0000 electrons
 Dipole moment (field-independent basis, Debye):
    X=             -0.9518    Y=             -4.3683    Z=              3.2165  Tot=              5.5076
 Quadrupole moment (field-independent basis, Debye-Ang):
   XX=           -138.8549   YY=           -140.7930   ZZ=           -139.7875
   XY=              5.5010   XZ=              7.4656   YZ=              2.0625
 Traceless Quadrupole moment (field-independent basis, Debye-Ang):
   XX=              0.9569   YY=             -0.9812   ZZ=              0.0243
   XY=              5.5010   XZ=              7.4656   YZ=              2.0625
 Octapole moment (field-independent basis, Debye-Ang**2):
  XXX=            -13.9101  YYY=            -64.3209  ZZZ=             15.0544  XYY=             -3.9095
  XXY=            -16.8438  XXZ=             56.8599  XZZ=            -11.1059  YZZ=            -17.4384
  YYZ=             15.2204  XYZ=             -3.2342
 Hexadecapole moment (field-independent basis, Debye-Ang**3):
 XXXX=          -6036.9672 YYYY=          -2604.8809 ZZZZ=           -790.6835 XXXY=             36.7189
 XXXZ=            300.2446 YYYX=            121.4641 YYYZ=              4.1913 ZZZX=              8.0602
 ZZZY=            -10.9523 XXYY=          -1398.5007 XXZZ=          -1251.8551 YYZZ=           -569.0118
 XXYZ=             43.9815 YYXZ=            -46.1968 ZZXY=             38.1567
 N-N= 2.365490505868D+03 E-N=-7.778593036024D+03  KE= 1.294084025014D+03
 No NMR shielding tensors so no spin-rotation constants.
 Leave Link  601 at Thu Mar 16 19:24:46 2023, MaxMem=   262144000 cpu:               1.9 elap:               0.3
 (Enter /dragofs/sw/campus/0.2/software/gaussian/16.gaussian/gaussian/g16_legacy/l9999.exe)
 1\1\GINC-DRAGO31050154\FOpt\RM062X\6-311G(d,p)\C12H22O11\JRAMOS\16-Mar
 -2023\0\\#p opt M062X/6-311g(d,p)\\Optimization 03-DIHEDRAL_PHI_PSI_14
 b/dimer14b_000_005.log\\0,1\C,3.4682771707,0.6346796947,-0.7261961212\
 H,2.8953652806,0.8614466737,-1.6339545469\O,4.7332334296,1.1400205764,
 -0.9222129223\H,5.2924679161,0.8442453584,-0.1970530266\C,1.5216806754
 ,0.9594814889,0.621271839\H,0.9359117112,1.1860808342,-0.2807691826\O,
 2.8868759507,1.2888636674,0.3941843012\C,3.4534857216,-0.8707207501,-0
 .4636315153\H,4.0526738314,-1.0627278645,0.4419557444\O,3.9861944101,-
 1.533454158,-1.5787369819\H,3.793142348,-2.4693873054,-1.457856467\C,2
 .0263168942,-1.3237072515,-0.2024620728\H,1.4652978669,-1.1290150385,-
 1.1276338923\O,2.0612877811,-2.7119512603,0.0572695268\H,1.1516600995,
 -3.0182008625,0.1309402547\C,1.426081527,-0.5333709342,0.951537998\H,2
 .0077950676,-0.7376830034,1.8546359735\O,0.1100950775,-0.9863377234,1.
 2733549957\C,1.0427821654,1.8661523672,1.7359165429\H,0.0850333299,1.5
 205237291,2.115846995\H,1.785569635,1.8518637966,2.5418435754\O,0.8450
 796507,3.1842002616,1.2522882842\H,1.6753822711,3.4695703735,0.8554934
 267\C,-0.8876492867,-0.737713902,0.3400596423\H,-0.5412959555,-0.94989
 44998,-0.684830862\C,-2.2382112118,0.9551806373,-0.5784347212\H,-1.833
 7836083,0.7026701511,-1.5700195219\O,-1.2902782067,0.6050995919,0.4267
 035828\C,-2.0703904078,-1.6332775423,0.6653572157\H,-2.4064714639,-1.3
 975749453,1.6821061402\O,-1.7316705408,-3.003017102,0.5397135086\H,-1.
 239067227,-3.2505593642,1.3270911776\C,-3.184854027,-1.3340115592,-0.3
 205316797\H,-2.8433266101,-1.6170771574,-1.3279369374\O,-4.3738875625,
 -2.0224644388,0.0022837295\H,-4.1646363032,-2.9615104043,0.0240502374\
 C,-3.512906016,0.1536677976,-0.3371883457\H,-3.9232618257,0.4258215081
 ,0.6466233282\O,-4.4260637722,0.4477781597,-1.3668979578\H,-5.16243898
 11,-0.1649531417,-1.2692721984\C,-2.4115471337,2.4600921316,-0.5066074
 459\H,-3.1645427997,2.7546569768,-1.2389314814\H,-2.7783262278,2.72433
 65933,0.4939089191\O,-1.2095801845,3.117890384,-0.819450612\H,-0.62844
 54597,3.1190604557,-0.0450874464\\Version=EM64L-G16RevA.03\State=1-A\H
 F=-1297.8316356\RMSD=5.982e-09\RMSF=9.699e-06\Dipole=-0.2564718,-1.765
 7215,1.2295525\Quadrupole=0.1516595,-0.2459196,0.0942601,4.0377525,5.5
 173543,1.9012597\PG=C01 [X(C12H22O11)]\\@


0EVERYBODY IS IGNORANT, ONLY ON DIFFERENT SUBJECTS.
0          WILL ROGERS
 Job cpu time:       0 days  8 hours 11 minutes 38.5 seconds.
 Elapsed time:       0 days  1 hours  1 minutes 54.8 seconds.
 File lengths (MBytes):  RWF=    189 Int=      0 D2E=      0 Chk=     24 Scr=      1
 Normal termination of Gaussian 16 at Thu Mar 16 19:24:46 2023.
