 Entering Gaussian System, Link 0=/dragofs/sw/campus/0.2/software/gaussian/16.gaussian/gaussian/g16_legacy/g16
 Input=dimer14b_000_000_opt.com
 Output=dimer14b_000_000_opt.log
 Initial command:
 /dragofs/sw/campus/0.2/software/gaussian/16.gaussian/gaussian/g16_legacy/l1.exe "/tmp/jramos/82031/Gau-220100.inp" -scrdir="/tmp/jramos/82031/"
 Entering Link 1 = /dragofs/sw/campus/0.2/software/gaussian/16.gaussian/gaussian/g16_legacy/l1.exe PID=    220101.
  
 Copyright (c) 1988,1990,1992,1993,1995,1998,2003,2009,2016,
            Gaussian, Inc.  All Rights Reserved.
  
 This is part of the Gaussian(R) 16 program.  It is based on
 the Gaussian(R) 09 system (copyright 2009, Gaussian, Inc.),
 the Gaussian(R) 03 system (copyright 2003, Gaussian, Inc.),
 the Gaussian(R) 98 system (copyright 1998, Gaussian, Inc.),
 the Gaussian(R) 94 system (copyright 1995, Gaussian, Inc.),
 the Gaussian 92(TM) system (copyright 1992, Gaussian, Inc.),
 the Gaussian 90(TM) system (copyright 1990, Gaussian, Inc.),
 the Gaussian 88(TM) system (copyright 1988, Gaussian, Inc.),
 the Gaussian 86(TM) system (copyright 1986, Carnegie Mellon
 University), and the Gaussian 82(TM) system (copyright 1983,
 Carnegie Mellon University). Gaussian is a federally registered
 trademark of Gaussian, Inc.
  
 This software contains proprietary and confidential information,
 including trade secrets, belonging to Gaussian, Inc.
  
 This software is provided under written license and may be
 used, copied, transmitted, or stored only in accord with that
 written license.
  
 The following legend is applicable only to US Government
 contracts under FAR:
  
                    RESTRICTED RIGHTS LEGEND
  
 Use, reproduction and disclosure by the US Government is
 subject to restrictions as set forth in subparagraphs (a)
 and (c) of the Commercial Computer Software - Restricted
 Rights clause in FAR 52.227-19.
  
 Gaussian, Inc.
 340 Quinnipiac St., Bldg. 40, Wallingford CT 06492
  
  
 ---------------------------------------------------------------
 Warning -- This program may not be used in any manner that
 competes with the business of Gaussian, Inc. or will provide
 assistance to any competitor of Gaussian, Inc.  The licensee
 of this program is prohibited from giving any competitor of
 Gaussian, Inc. access to this program.  By using this program,
 the user acknowledges that Gaussian, Inc. is engaged in the
 business of creating and licensing software in the field of
 computational chemistry and represents and warrants to the
 licensee that it is not a competitor of Gaussian, Inc. and that
 it will not use this program in any manner prohibited above.
 ---------------------------------------------------------------
  

 Cite this work as:
 Gaussian 16, Revision A.03,
 M. J. Frisch, G. W. Trucks, H. B. Schlegel, G. E. Scuseria, 
 M. A. Robb, J. R. Cheeseman, G. Scalmani, V. Barone, 
 G. A. Petersson, H. Nakatsuji, X. Li, M. Caricato, A. V. Marenich, 
 J. Bloino, B. G. Janesko, R. Gomperts, B. Mennucci, H. P. Hratchian, 
 J. V. Ortiz, A. F. Izmaylov, J. L. Sonnenberg, D. Williams-Young, 
 F. Ding, F. Lipparini, F. Egidi, J. Goings, B. Peng, A. Petrone, 
 T. Henderson, D. Ranasinghe, V. G. Zakrzewski, J. Gao, N. Rega, 
 G. Zheng, W. Liang, M. Hada, M. Ehara, K. Toyota, R. Fukuda, 
 J. Hasegawa, M. Ishida, T. Nakajima, Y. Honda, O. Kitao, H. Nakai, 
 T. Vreven, K. Throssell, J. A. Montgomery, Jr., J. E. Peralta, 
 F. Ogliaro, M. J. Bearpark, J. J. Heyd, E. N. Brothers, K. N. Kudin, 
 V. N. Staroverov, T. A. Keith, R. Kobayashi, J. Normand, 
 K. Raghavachari, A. P. Rendell, J. C. Burant, S. S. Iyengar, 
 J. Tomasi, M. Cossi, J. M. Millam, M. Klene, C. Adamo, R. Cammi, 
 J. W. Ochterski, R. L. Martin, K. Morokuma, O. Farkas, 
 J. B. Foresman, and D. J. Fox, Gaussian, Inc., Wallingford CT, 2016.
 
 ******************************************
 Gaussian 16:  EM64L-G16RevA.03 25-Dec-2016
                16-Mar-2023 
 ******************************************
 %chk=dimer14b_000_000_opt.chk
 %mem=2000MB
 %nproc=8
 Will use up to    8 processors via shared memory.
 ------------------------
 #p opt M062X/6-311g(d,p)
 ------------------------
 1/18=20,19=15,26=3,38=1/1,3;
 2/9=110,12=2,17=6,18=5,40=1/2;
 3/5=4,6=6,7=101,11=2,25=1,30=1,71=1,74=-55/1,2,3;
 4//1;
 5/5=2,38=5/2;
 6/7=2,8=2,9=2,10=2,28=1/1;
 7//1,2,3,16;
 1/18=20,19=15,26=3/3(2);
 2/9=110/2;
 99//99;
 2/9=110/2;
 3/5=4,6=6,7=101,11=2,25=1,30=1,71=1,74=-55/1,2,3;
 4/5=5,16=3,69=1/1;
 5/5=2,38=5/2;
 7//1,2,3,16;
 1/18=20,19=15,26=3/3(-5);
 2/9=110/2;
 6/7=2,8=2,9=2,10=2,19=2,28=1/1;
 99/9=1/99;
 Leave Link    1 at Thu Mar 16 17:36:41 2023, MaxMem=   262144000 cpu:               0.3 elap:               0.0
 (Enter /dragofs/sw/campus/0.2/software/gaussian/16.gaussian/gaussian/g16_legacy/l101.exe)
 ---------------------------------------------------------
 Optimization 03-DIHEDRAL_PHI_PSI_14b/dimer14b_000_000.log
 ---------------------------------------------------------
 Symbolic Z-matrix:
 Charge =  0 Multiplicity = 1
 C                    -4.06597  -0.25653   0.23112 
 H                    -4.24322   0.12272   1.24504 
 O                    -5.2935   -0.60215  -0.28348 
 H                    -5.15533  -1.10822  -1.09023 
 C                    -2.30985   1.32418  -0.05118 
 H                    -2.49142   1.70784   0.96419 
 O                    -3.50415   0.77182  -0.57711 
 C                    -3.07446  -1.41439   0.26397 
 H                    -2.9297   -1.75656  -0.77472 
 O                    -3.59434  -2.43813   1.06913 
 H                    -2.88042  -3.07082   1.20323 
 C                    -1.72947  -0.94374   0.79885 
 H                    -1.86891  -0.62444   1.84213 
 O                    -0.87014  -2.06621   0.74968 
 H                     0.01904  -1.76399   0.97745 
 C                    -1.22231   0.25601   0.00984 
 H                    -0.95156  -0.06247  -1.00529 
 O                    -0.08454   0.83319   0.65759 
 C                    -1.95014   2.48333  -0.96118 
 H                    -1.03742   2.96432  -0.60526 
 H                    -1.76605   2.08608  -1.96977 
 O                    -2.97079   3.44864  -0.96398 
 H                    -3.78787   2.97503  -1.1536 
 C                     1.12469   0.61971   0.01784 
 H                     1.0663    0.9352   -1.03799 
 C                     2.61156  -1.11511  -0.63229 
 H                     2.53075  -0.77068  -1.67242 
 O                     1.42317  -0.75788   0.07564 
 C                     2.21297   1.3953    0.7382 
 H                     2.22634   1.06838   1.78588 
 O                     2.02559   2.7891    0.63029 
 H                     1.23177   3.02235   1.12071 
 C                     3.54784   1.07144   0.0879 
 H                     3.52546   1.4447   -0.94718 
 O                     4.62601   1.6471    0.79162 
 H                     4.46254   2.59434   0.8436 
 C                     3.79205  -0.43056   0.04325 
 H                     3.87377  -0.79717   1.07737 
 O                     4.95242  -0.72743  -0.69386 
 H                     5.65499  -0.16861  -0.34491 
 C                     2.6595   -2.62938  -0.62112 
 H                     3.54451  -2.96153  -1.16314 
 H                     2.74065  -2.97176   0.42027 
 O                     1.5296   -3.16988  -1.26322 
 H                     0.74286  -2.85167  -0.80499 
 
 ITRead=  0  0  0  0  0  0  0  0  0  0  0  0  0  0  0  0  0  0  0  0
 ITRead=  0  0  0  0  0  0  0  0  0  0  0  0  0  0  0  0  0  0  0  0
 ITRead=  0  0  0  0  0
 MicOpt= -1 -1 -1 -1 -1 -1 -1 -1 -1 -1 -1 -1 -1 -1 -1 -1 -1 -1 -1 -1
 MicOpt= -1 -1 -1 -1 -1 -1 -1 -1 -1 -1 -1 -1 -1 -1 -1 -1 -1 -1 -1 -1
 MicOpt= -1 -1 -1 -1 -1
 NAtoms=     45 NQM=       45 NQMF=       0 NMMI=      0 NMMIF=      0
                NMic=       0 NMicF=      0.
                    Isotopes and Nuclear Properties:
 (Nuclear quadrupole moments (NQMom) in fm**2, nuclear magnetic moments (NMagM)
  in nuclear magnetons)

  Atom         1           2           3           4           5           6           7           8           9          10
 IAtWgt=          12           1          16           1          12           1          16          12           1          16
 AtmWgt=  12.0000000   1.0078250  15.9949146   1.0078250  12.0000000   1.0078250  15.9949146  12.0000000   1.0078250  15.9949146
 NucSpn=           0           1           0           1           0           1           0           0           1           0
 AtZEff=  -0.0000000  -0.0000000  -0.0000000  -0.0000000  -0.0000000  -0.0000000  -0.0000000  -0.0000000  -0.0000000  -0.0000000
 NQMom=    0.0000000   0.0000000   0.0000000   0.0000000   0.0000000   0.0000000   0.0000000   0.0000000   0.0000000   0.0000000
 NMagM=    0.0000000   2.7928460   0.0000000   2.7928460   0.0000000   2.7928460   0.0000000   0.0000000   2.7928460   0.0000000
 AtZNuc=   6.0000000   1.0000000   8.0000000   1.0000000   6.0000000   1.0000000   8.0000000   6.0000000   1.0000000   8.0000000

  Atom        11          12          13          14          15          16          17          18          19          20
 IAtWgt=           1          12           1          16           1          12           1          16          12           1
 AtmWgt=   1.0078250  12.0000000   1.0078250  15.9949146   1.0078250  12.0000000   1.0078250  15.9949146  12.0000000   1.0078250
 NucSpn=           1           0           1           0           1           0           1           0           0           1
 AtZEff=  -0.0000000  -0.0000000  -0.0000000  -0.0000000  -0.0000000  -0.0000000  -0.0000000  -0.0000000  -0.0000000  -0.0000000
 NQMom=    0.0000000   0.0000000   0.0000000   0.0000000   0.0000000   0.0000000   0.0000000   0.0000000   0.0000000   0.0000000
 NMagM=    2.7928460   0.0000000   2.7928460   0.0000000   2.7928460   0.0000000   2.7928460   0.0000000   0.0000000   2.7928460
 AtZNuc=   1.0000000   6.0000000   1.0000000   8.0000000   1.0000000   6.0000000   1.0000000   8.0000000   6.0000000   1.0000000

  Atom        21          22          23          24          25          26          27          28          29          30
 IAtWgt=           1          16           1          12           1          12           1          16          12           1
 AtmWgt=   1.0078250  15.9949146   1.0078250  12.0000000   1.0078250  12.0000000   1.0078250  15.9949146  12.0000000   1.0078250
 NucSpn=           1           0           1           0           1           0           1           0           0           1
 AtZEff=  -0.0000000  -0.0000000  -0.0000000  -0.0000000  -0.0000000  -0.0000000  -0.0000000  -0.0000000  -0.0000000  -0.0000000
 NQMom=    0.0000000   0.0000000   0.0000000   0.0000000   0.0000000   0.0000000   0.0000000   0.0000000   0.0000000   0.0000000
 NMagM=    2.7928460   0.0000000   2.7928460   0.0000000   2.7928460   0.0000000   2.7928460   0.0000000   0.0000000   2.7928460
 AtZNuc=   1.0000000   8.0000000   1.0000000   6.0000000   1.0000000   6.0000000   1.0000000   8.0000000   6.0000000   1.0000000

  Atom        31          32          33          34          35          36          37          38          39          40
 IAtWgt=          16           1          12           1          16           1          12           1          16           1
 AtmWgt=  15.9949146   1.0078250  12.0000000   1.0078250  15.9949146   1.0078250  12.0000000   1.0078250  15.9949146   1.0078250
 NucSpn=           0           1           0           1           0           1           0           1           0           1
 AtZEff=  -0.0000000  -0.0000000  -0.0000000  -0.0000000  -0.0000000  -0.0000000  -0.0000000  -0.0000000  -0.0000000  -0.0000000
 NQMom=    0.0000000   0.0000000   0.0000000   0.0000000   0.0000000   0.0000000   0.0000000   0.0000000   0.0000000   0.0000000
 NMagM=    0.0000000   2.7928460   0.0000000   2.7928460   0.0000000   2.7928460   0.0000000   2.7928460   0.0000000   2.7928460
 AtZNuc=   8.0000000   1.0000000   6.0000000   1.0000000   8.0000000   1.0000000   6.0000000   1.0000000   8.0000000   1.0000000

  Atom        41          42          43          44          45
 IAtWgt=          12           1           1          16           1
 AtmWgt=  12.0000000   1.0078250   1.0078250  15.9949146   1.0078250
 NucSpn=           0           1           1           0           1
 AtZEff=  -0.0000000  -0.0000000  -0.0000000  -0.0000000  -0.0000000
 NQMom=    0.0000000   0.0000000   0.0000000   0.0000000   0.0000000
 NMagM=    0.0000000   2.7928460   2.7928460   0.0000000   2.7928460
 AtZNuc=   6.0000000   1.0000000   1.0000000   8.0000000   1.0000000
 Leave Link  101 at Thu Mar 16 17:36:41 2023, MaxMem=   262144000 cpu:               0.9 elap:               0.1
 (Enter /dragofs/sw/campus/0.2/software/gaussian/16.gaussian/gaussian/g16_legacy/l103.exe)

 GradGradGradGradGradGradGradGradGradGradGradGradGradGradGradGradGradGrad
 Berny optimization.
 Initialization pass.
                           ----------------------------
                           !    Initial Parameters    !
                           ! (Angstroms and Degrees)  !
 --------------------------                            --------------------------
 ! Name  Definition              Value          Derivative Info.                !
 --------------------------------------------------------------------------------
 ! R1    R(1,2)                  1.0969         estimate D2E/DX2                !
 ! R2    R(1,3)                  1.3752         estimate D2E/DX2                !
 ! R3    R(1,7)                  1.4235         estimate D2E/DX2                !
 ! R4    R(1,8)                  1.5247         estimate D2E/DX2                !
 ! R5    R(3,4)                  0.9623         estimate D2E/DX2                !
 ! R6    R(5,6)                  1.1005         estimate D2E/DX2                !
 ! R7    R(5,7)                  1.4171         estimate D2E/DX2                !
 ! R8    R(5,16)                 1.5256         estimate D2E/DX2                !
 ! R9    R(5,19)                 1.5169         estimate D2E/DX2                !
 ! R10   R(8,9)                  1.1031         estimate D2E/DX2                !
 ! R11   R(8,10)                 1.4024         estimate D2E/DX2                !
 ! R12   R(8,12)                 1.522          estimate D2E/DX2                !
 ! R13   R(10,11)                0.9633         estimate D2E/DX2                !
 ! R14   R(12,13)                1.0999         estimate D2E/DX2                !
 ! R15   R(12,14)                1.4145         estimate D2E/DX2                !
 ! R16   R(12,16)                1.5229         estimate D2E/DX2                !
 ! R17   R(14,15)                0.9664         estimate D2E/DX2                !
 ! R18   R(16,17)                1.0978         estimate D2E/DX2                !
 ! R19   R(16,18)                1.4308         estimate D2E/DX2                !
 ! R20   R(18,24)                1.3846         estimate D2E/DX2                !
 ! R21   R(19,20)                1.0914         estimate D2E/DX2                !
 ! R22   R(19,21)                1.0995         estimate D2E/DX2                !
 ! R23   R(19,22)                1.4048         estimate D2E/DX2                !
 ! R24   R(22,23)                0.9633         estimate D2E/DX2                !
 ! R25   R(24,25)                1.1035         estimate D2E/DX2                !
 ! R26   R(24,28)                1.4107         estimate D2E/DX2                !
 ! R27   R(24,29)                1.5182         estimate D2E/DX2                !
 ! R28   R(26,27)                1.0987         estimate D2E/DX2                !
 ! R29   R(26,28)                1.4286         estimate D2E/DX2                !
 ! R30   R(26,37)                1.5227         estimate D2E/DX2                !
 ! R31   R(26,41)                1.5151         estimate D2E/DX2                !
 ! R32   R(29,30)                1.0976         estimate D2E/DX2                !
 ! R33   R(29,31)                1.4105         estimate D2E/DX2                !
 ! R34   R(29,33)                1.5198         estimate D2E/DX2                !
 ! R35   R(31,32)                0.9618         estimate D2E/DX2                !
 ! R36   R(33,34)                1.1005         estimate D2E/DX2                !
 ! R37   R(33,35)                1.4103         estimate D2E/DX2                !
 ! R38   R(33,37)                1.5224         estimate D2E/DX2                !
 ! R39   R(35,36)                0.9627         estimate D2E/DX2                !
 ! R40   R(37,38)                1.1002         estimate D2E/DX2                !
 ! R41   R(37,39)                1.4064         estimate D2E/DX2                !
 ! R42   R(39,40)                0.9632         estimate D2E/DX2                !
 ! R43   R(41,42)                1.0897         estimate D2E/DX2                !
 ! R44   R(41,43)                1.0992         estimate D2E/DX2                !
 ! R45   R(41,44)                1.4075         estimate D2E/DX2                !
 ! R46   R(44,45)                0.9645         estimate D2E/DX2                !
 ! A1    A(2,1,3)              106.7709         estimate D2E/DX2                !
 ! A2    A(2,1,7)              109.8047         estimate D2E/DX2                !
 ! A3    A(2,1,8)              110.3471         estimate D2E/DX2                !
 ! A4    A(3,1,7)              108.7478         estimate D2E/DX2                !
 ! A5    A(3,1,8)              113.4325         estimate D2E/DX2                !
 ! A6    A(7,1,8)              107.7078         estimate D2E/DX2                !
 ! A7    A(1,3,4)              108.5253         estimate D2E/DX2                !
 ! A8    A(6,5,7)              109.8318         estimate D2E/DX2                !
 ! A9    A(6,5,16)             108.9536         estimate D2E/DX2                !
 ! A10   A(6,5,19)             109.039          estimate D2E/DX2                !
 ! A11   A(7,5,16)             110.043          estimate D2E/DX2                !
 ! A12   A(7,5,19)             105.9658         estimate D2E/DX2                !
 ! A13   A(16,5,19)            112.9527         estimate D2E/DX2                !
 ! A14   A(1,7,5)              113.7971         estimate D2E/DX2                !
 ! A15   A(1,8,9)              107.4936         estimate D2E/DX2                !
 ! A16   A(1,8,10)             109.0056         estimate D2E/DX2                !
 ! A17   A(1,8,12)             110.328          estimate D2E/DX2                !
 ! A18   A(9,8,10)             111.2731         estimate D2E/DX2                !
 ! A19   A(9,8,12)             108.1101         estimate D2E/DX2                !
 ! A20   A(10,8,12)            110.5828         estimate D2E/DX2                !
 ! A21   A(8,10,11)            106.5376         estimate D2E/DX2                !
 ! A22   A(8,12,13)            108.1235         estimate D2E/DX2                !
 ! A23   A(8,12,14)            106.2155         estimate D2E/DX2                !
 ! A24   A(8,12,16)            110.8438         estimate D2E/DX2                !
 ! A25   A(13,12,14)           109.898          estimate D2E/DX2                !
 ! A26   A(13,12,16)           107.7551         estimate D2E/DX2                !
 ! A27   A(14,12,16)           113.8812         estimate D2E/DX2                !
 ! A28   A(12,14,15)           107.6157         estimate D2E/DX2                !
 ! A29   A(5,16,12)            109.5679         estimate D2E/DX2                !
 ! A30   A(5,16,17)            109.9954         estimate D2E/DX2                !
 ! A31   A(5,16,18)            107.6093         estimate D2E/DX2                !
 ! A32   A(12,16,17)           109.4308         estimate D2E/DX2                !
 ! A33   A(12,16,18)           110.3688         estimate D2E/DX2                !
 ! A34   A(17,16,18)           109.8477         estimate D2E/DX2                !
 ! A35   A(16,18,24)           115.0306         estimate D2E/DX2                !
 ! A36   A(5,19,20)            109.8428         estimate D2E/DX2                !
 ! A37   A(5,19,21)            108.2947         estimate D2E/DX2                !
 ! A38   A(5,19,22)            110.7305         estimate D2E/DX2                !
 ! A39   A(20,19,21)           108.5641         estimate D2E/DX2                !
 ! A40   A(20,19,22)           107.7833         estimate D2E/DX2                !
 ! A41   A(21,19,22)           111.5966         estimate D2E/DX2                !
 ! A42   A(19,22,23)           106.19           estimate D2E/DX2                !
 ! A43   A(18,24,25)           110.5973         estimate D2E/DX2                !
 ! A44   A(18,24,28)           108.446          estimate D2E/DX2                !
 ! A45   A(18,24,29)           109.1499         estimate D2E/DX2                !
 ! A46   A(25,24,28)           109.2433         estimate D2E/DX2                !
 ! A47   A(25,24,29)           110.2348         estimate D2E/DX2                !
 ! A48   A(28,24,29)           109.1328         estimate D2E/DX2                !
 ! A49   A(27,26,28)           109.2419         estimate D2E/DX2                !
 ! A50   A(27,26,37)           109.6392         estimate D2E/DX2                !
 ! A51   A(27,26,41)           108.8226         estimate D2E/DX2                !
 ! A52   A(28,26,37)           108.2186         estimate D2E/DX2                !
 ! A53   A(28,26,41)           105.8184         estimate D2E/DX2                !
 ! A54   A(37,26,41)           114.9316         estimate D2E/DX2                !
 ! A55   A(24,28,26)           113.5699         estimate D2E/DX2                !
 ! A56   A(24,29,30)           108.0285         estimate D2E/DX2                !
 ! A57   A(24,29,31)           111.9194         estimate D2E/DX2                !
 ! A58   A(24,29,33)           108.5257         estimate D2E/DX2                !
 ! A59   A(30,29,31)           111.6524         estimate D2E/DX2                !
 ! A60   A(30,29,33)           109.5285         estimate D2E/DX2                !
 ! A61   A(31,29,33)           107.1293         estimate D2E/DX2                !
 ! A62   A(29,31,32)           108.0764         estimate D2E/DX2                !
 ! A63   A(29,33,34)           108.1988         estimate D2E/DX2                !
 ! A64   A(29,33,35)           111.7761         estimate D2E/DX2                !
 ! A65   A(29,33,37)           111.3273         estimate D2E/DX2                !
 ! A66   A(34,33,35)           110.2673         estimate D2E/DX2                !
 ! A67   A(34,33,37)           108.077          estimate D2E/DX2                !
 ! A68   A(35,33,37)           107.1397         estimate D2E/DX2                !
 ! A69   A(33,35,36)           107.3832         estimate D2E/DX2                !
 ! A70   A(26,37,33)           109.4023         estimate D2E/DX2                !
 ! A71   A(26,37,38)           108.952          estimate D2E/DX2                !
 ! A72   A(26,37,39)           108.1944         estimate D2E/DX2                !
 ! A73   A(33,37,38)           108.2461         estimate D2E/DX2                !
 ! A74   A(33,37,39)           110.8541         estimate D2E/DX2                !
 ! A75   A(38,37,39)           111.1621         estimate D2E/DX2                !
 ! A76   A(37,39,40)           106.8279         estimate D2E/DX2                !
 ! A77   A(26,41,42)           109.0685         estimate D2E/DX2                !
 ! A78   A(26,41,43)           108.7007         estimate D2E/DX2                !
 ! A79   A(26,41,44)           110.7962         estimate D2E/DX2                !
 ! A80   A(42,41,43)           108.4415         estimate D2E/DX2                !
 ! A81   A(42,41,44)           107.9405         estimate D2E/DX2                !
 ! A82   A(43,41,44)           111.8294         estimate D2E/DX2                !
 ! A83   A(41,44,45)           108.1433         estimate D2E/DX2                !
 ! D1    D(2,1,3,4)           -168.0678         estimate D2E/DX2                !
 ! D2    D(7,1,3,4)             73.5091         estimate D2E/DX2                !
 ! D3    D(8,1,3,4)            -46.3046         estimate D2E/DX2                !
 ! D4    D(2,1,7,5)             56.2442         estimate D2E/DX2                !
 ! D5    D(3,1,7,5)            172.7376         estimate D2E/DX2                !
 ! D6    D(8,1,7,5)            -63.9497         estimate D2E/DX2                !
 ! D7    D(2,1,8,9)           -179.8898         estimate D2E/DX2                !
 ! D8    D(2,1,8,10)            59.3865         estimate D2E/DX2                !
 ! D9    D(2,1,8,12)           -62.2231         estimate D2E/DX2                !
 ! D10   D(3,1,8,9)             60.3653         estimate D2E/DX2                !
 ! D11   D(3,1,8,10)           -60.3584         estimate D2E/DX2                !
 ! D12   D(3,1,8,12)           178.032          estimate D2E/DX2                !
 ! D13   D(7,1,8,9)            -60.039          estimate D2E/DX2                !
 ! D14   D(7,1,8,10)           179.2373         estimate D2E/DX2                !
 ! D15   D(7,1,8,12)            57.6277         estimate D2E/DX2                !
 ! D16   D(6,5,7,1)            -56.584          estimate D2E/DX2                !
 ! D17   D(16,5,7,1)            63.3573         estimate D2E/DX2                !
 ! D18   D(19,5,7,1)          -174.2213         estimate D2E/DX2                !
 ! D19   D(6,5,16,12)           65.6731         estimate D2E/DX2                !
 ! D20   D(6,5,16,17)         -173.9923         estimate D2E/DX2                !
 ! D21   D(6,5,16,18)          -54.3518         estimate D2E/DX2                !
 ! D22   D(7,5,16,12)          -54.7992         estimate D2E/DX2                !
 ! D23   D(7,5,16,17)           65.5354         estimate D2E/DX2                !
 ! D24   D(7,5,16,18)         -174.8241         estimate D2E/DX2                !
 ! D25   D(19,5,16,12)        -172.9942         estimate D2E/DX2                !
 ! D26   D(19,5,16,17)         -52.6596         estimate D2E/DX2                !
 ! D27   D(19,5,16,18)          66.9809         estimate D2E/DX2                !
 ! D28   D(6,5,19,20)           61.2793         estimate D2E/DX2                !
 ! D29   D(6,5,19,21)          179.6899         estimate D2E/DX2                !
 ! D30   D(6,5,19,22)          -57.6516         estimate D2E/DX2                !
 ! D31   D(7,5,19,20)          179.4449         estimate D2E/DX2                !
 ! D32   D(7,5,19,21)          -62.1445         estimate D2E/DX2                !
 ! D33   D(7,5,19,22)           60.514          estimate D2E/DX2                !
 ! D34   D(16,5,19,20)         -60.0051         estimate D2E/DX2                !
 ! D35   D(16,5,19,21)          58.4055         estimate D2E/DX2                !
 ! D36   D(16,5,19,22)        -178.936          estimate D2E/DX2                !
 ! D37   D(1,8,10,11)         -169.429          estimate D2E/DX2                !
 ! D38   D(9,8,10,11)           72.1933         estimate D2E/DX2                !
 ! D39   D(12,8,10,11)         -47.9743         estimate D2E/DX2                !
 ! D40   D(1,8,12,13)           64.0119         estimate D2E/DX2                !
 ! D41   D(1,8,12,14)         -178.0747         estimate D2E/DX2                !
 ! D42   D(1,8,12,16)          -53.8898         estimate D2E/DX2                !
 ! D43   D(9,8,12,13)         -178.7022         estimate D2E/DX2                !
 ! D44   D(9,8,12,14)          -60.7887         estimate D2E/DX2                !
 ! D45   D(9,8,12,16)           63.3961         estimate D2E/DX2                !
 ! D46   D(10,8,12,13)         -56.6582         estimate D2E/DX2                !
 ! D47   D(10,8,12,14)          61.2552         estimate D2E/DX2                !
 ! D48   D(10,8,12,16)        -174.5599         estimate D2E/DX2                !
 ! D49   D(8,12,14,15)         172.8742         estimate D2E/DX2                !
 ! D50   D(13,12,14,15)        -70.3958         estimate D2E/DX2                !
 ! D51   D(16,12,14,15)         50.5969         estimate D2E/DX2                !
 ! D52   D(8,12,16,5)           51.6258         estimate D2E/DX2                !
 ! D53   D(8,12,16,17)         -69.0522         estimate D2E/DX2                !
 ! D54   D(8,12,16,18)         169.9496         estimate D2E/DX2                !
 ! D55   D(13,12,16,5)         -66.5001         estimate D2E/DX2                !
 ! D56   D(13,12,16,17)        172.8219         estimate D2E/DX2                !
 ! D57   D(13,12,16,18)         51.8237         estimate D2E/DX2                !
 ! D58   D(14,12,16,5)         171.3189         estimate D2E/DX2                !
 ! D59   D(14,12,16,17)         50.6409         estimate D2E/DX2                !
 ! D60   D(14,12,16,18)        -70.3573         estimate D2E/DX2                !
 ! D61   D(5,16,18,24)        -132.5535         estimate D2E/DX2                !
 ! D62   D(12,16,18,24)        107.9303         estimate D2E/DX2                !
 ! D63   D(17,16,18,24)        -12.8191         estimate D2E/DX2                !
 ! D64   D(16,18,24,25)         53.1426         estimate D2E/DX2                !
 ! D65   D(16,18,24,28)        -66.6268         estimate D2E/DX2                !
 ! D66   D(16,18,24,29)        174.5847         estimate D2E/DX2                !
 ! D67   D(5,19,22,23)         -51.6365         estimate D2E/DX2                !
 ! D68   D(20,19,22,23)       -171.8051         estimate D2E/DX2                !
 ! D69   D(21,19,22,23)         69.0806         estimate D2E/DX2                !
 ! D70   D(18,24,28,26)        176.0925         estimate D2E/DX2                !
 ! D71   D(25,24,28,26)         55.4797         estimate D2E/DX2                !
 ! D72   D(29,24,28,26)        -65.1083         estimate D2E/DX2                !
 ! D73   D(18,24,29,30)         57.2456         estimate D2E/DX2                !
 ! D74   D(18,24,29,31)        -66.0686         estimate D2E/DX2                !
 ! D75   D(18,24,29,33)        175.9186         estimate D2E/DX2                !
 ! D76   D(25,24,29,30)        178.9075         estimate D2E/DX2                !
 ! D77   D(25,24,29,31)         55.5933         estimate D2E/DX2                !
 ! D78   D(25,24,29,33)        -62.4195         estimate D2E/DX2                !
 ! D79   D(28,24,29,30)        -61.1138         estimate D2E/DX2                !
 ! D80   D(28,24,29,31)        175.572          estimate D2E/DX2                !
 ! D81   D(28,24,29,33)         57.5592         estimate D2E/DX2                !
 ! D82   D(27,26,28,24)        -55.3297         estimate D2E/DX2                !
 ! D83   D(37,26,28,24)         63.9885         estimate D2E/DX2                !
 ! D84   D(41,26,28,24)       -172.3351         estimate D2E/DX2                !
 ! D85   D(27,26,37,33)         62.8776         estimate D2E/DX2                !
 ! D86   D(27,26,37,38)       -178.9635         estimate D2E/DX2                !
 ! D87   D(27,26,37,39)        -57.9894         estimate D2E/DX2                !
 ! D88   D(28,26,37,33)        -56.1897         estimate D2E/DX2                !
 ! D89   D(28,26,37,38)         61.9693         estimate D2E/DX2                !
 ! D90   D(28,26,37,39)       -177.0566         estimate D2E/DX2                !
 ! D91   D(41,26,37,33)       -174.1895         estimate D2E/DX2                !
 ! D92   D(41,26,37,38)        -56.0306         estimate D2E/DX2                !
 ! D93   D(41,26,37,39)         64.9436         estimate D2E/DX2                !
 ! D94   D(27,26,41,42)         61.924          estimate D2E/DX2                !
 ! D95   D(27,26,41,43)        179.9818         estimate D2E/DX2                !
 ! D96   D(27,26,41,44)        -56.7551         estimate D2E/DX2                !
 ! D97   D(28,26,41,42)        179.2116         estimate D2E/DX2                !
 ! D98   D(28,26,41,43)        -62.7307         estimate D2E/DX2                !
 ! D99   D(28,26,41,44)         60.5324         estimate D2E/DX2                !
 ! D100  D(37,26,41,42)        -61.445          estimate D2E/DX2                !
 ! D101  D(37,26,41,43)         56.6128         estimate D2E/DX2                !
 ! D102  D(37,26,41,44)        179.8759         estimate D2E/DX2                !
 ! D103  D(24,29,31,32)         67.2084         estimate D2E/DX2                !
 ! D104  D(30,29,31,32)        -54.0353         estimate D2E/DX2                !
 ! D105  D(33,29,31,32)       -173.9492         estimate D2E/DX2                !
 ! D106  D(24,29,33,34)         64.5689         estimate D2E/DX2                !
 ! D107  D(24,29,33,35)       -173.8304         estimate D2E/DX2                !
 ! D108  D(24,29,33,37)        -54.0516         estimate D2E/DX2                !
 ! D109  D(30,29,33,34)       -177.7094         estimate D2E/DX2                !
 ! D110  D(30,29,33,35)        -56.1087         estimate D2E/DX2                !
 ! D111  D(30,29,33,37)         63.6701         estimate D2E/DX2                !
 ! D112  D(31,29,33,34)        -56.4456         estimate D2E/DX2                !
 ! D113  D(31,29,33,35)         65.1551         estimate D2E/DX2                !
 ! D114  D(31,29,33,37)       -175.0661         estimate D2E/DX2                !
 ! D115  D(29,33,35,36)        -56.2173         estimate D2E/DX2                !
 ! D116  D(34,33,35,36)         64.1823         estimate D2E/DX2                !
 ! D117  D(37,33,35,36)       -178.4289         estimate D2E/DX2                !
 ! D118  D(29,33,37,26)         54.0239         estimate D2E/DX2                !
 ! D119  D(29,33,37,38)        -64.5748         estimate D2E/DX2                !
 ! D120  D(29,33,37,39)        173.2605         estimate D2E/DX2                !
 ! D121  D(34,33,37,26)        -64.6696         estimate D2E/DX2                !
 ! D122  D(34,33,37,38)        176.7318         estimate D2E/DX2                !
 ! D123  D(34,33,37,39)         54.567          estimate D2E/DX2                !
 ! D124  D(35,33,37,26)        176.5153         estimate D2E/DX2                !
 ! D125  D(35,33,37,38)         57.9166         estimate D2E/DX2                !
 ! D126  D(35,33,37,39)        -64.2481         estimate D2E/DX2                !
 ! D127  D(26,37,39,40)        170.4484         estimate D2E/DX2                !
 ! D128  D(33,37,39,40)         50.4879         estimate D2E/DX2                !
 ! D129  D(38,37,39,40)        -69.9594         estimate D2E/DX2                !
 ! D130  D(26,41,44,45)        -58.6163         estimate D2E/DX2                !
 ! D131  D(42,41,44,45)       -177.976          estimate D2E/DX2                !
 ! D132  D(43,41,44,45)         62.8227         estimate D2E/DX2                !
 --------------------------------------------------------------------------------
 Trust Radius=3.00D-01 FncErr=1.00D-07 GrdErr=1.00D-06 EigMax=2.50D+02 EigMin=1.00D-04
 Number of steps in this run=    270 maximum allowed number of steps=    270.
 GradGradGradGradGradGradGradGradGradGradGradGradGradGradGradGradGradGrad

 Leave Link  103 at Thu Mar 16 17:36:41 2023, MaxMem=   262144000 cpu:               0.1 elap:               0.0
 (Enter /dragofs/sw/campus/0.2/software/gaussian/16.gaussian/gaussian/g16_legacy/l202.exe)
                          Input orientation:                          
 ---------------------------------------------------------------------
 Center     Atomic      Atomic             Coordinates (Angstroms)
 Number     Number       Type             X           Y           Z
 ---------------------------------------------------------------------
      1          6           0       -4.065974   -0.256526    0.231120
      2          1           0       -4.243223    0.122721    1.245039
      3          8           0       -5.293501   -0.602154   -0.283481
      4          1           0       -5.155331   -1.108216   -1.090227
      5          6           0       -2.309850    1.324180   -0.051179
      6          1           0       -2.491422    1.707837    0.964188
      7          8           0       -3.504149    0.771823   -0.577106
      8          6           0       -3.074464   -1.414386    0.263968
      9          1           0       -2.929701   -1.756561   -0.774723
     10          8           0       -3.594343   -2.438130    1.069129
     11          1           0       -2.880415   -3.070824    1.203226
     12          6           0       -1.729471   -0.943738    0.798851
     13          1           0       -1.868909   -0.624441    1.842128
     14          8           0       -0.870138   -2.066210    0.749681
     15          1           0        0.019042   -1.763993    0.977447
     16          6           0       -1.222314    0.256011    0.009836
     17          1           0       -0.951562   -0.062466   -1.005290
     18          8           0       -0.084540    0.833190    0.657589
     19          6           0       -1.950135    2.483331   -0.961181
     20          1           0       -1.037416    2.964316   -0.605257
     21          1           0       -1.766049    2.086083   -1.969768
     22          8           0       -2.970785    3.448638   -0.963976
     23          1           0       -3.787869    2.975032   -1.153603
     24          6           0        1.124689    0.619707    0.017837
     25          1           0        1.066300    0.935197   -1.037991
     26          6           0        2.611555   -1.115110   -0.632286
     27          1           0        2.530752   -0.770677   -1.672424
     28          8           0        1.423170   -0.757876    0.075640
     29          6           0        2.212971    1.395297    0.738199
     30          1           0        2.226342    1.068379    1.785884
     31          8           0        2.025591    2.789102    0.630291
     32          1           0        1.231767    3.022353    1.120705
     33          6           0        3.547836    1.071442    0.087895
     34          1           0        3.525462    1.444700   -0.947176
     35          8           0        4.626007    1.647096    0.791621
     36          1           0        4.462536    2.594344    0.843603
     37          6           0        3.792050   -0.430560    0.043245
     38          1           0        3.873767   -0.797169    1.077373
     39          8           0        4.952416   -0.727430   -0.693856
     40          1           0        5.654994   -0.168609   -0.344908
     41          6           0        2.659495   -2.629382   -0.621124
     42          1           0        3.544505   -2.961534   -1.163135
     43          1           0        2.740650   -2.971761    0.420265
     44          8           0        1.529596   -3.169879   -1.263215
     45          1           0        0.742859   -2.851667   -0.804986
 ---------------------------------------------------------------------
                    Distance matrix (angstroms):
                    1          2          3          4          5
     1  C    0.000000
     2  H    1.096940   0.000000
     3  O    1.375171   1.991206   0.000000
     4  H    1.912598   2.792958   0.962304   0.000000
     5  C    2.379558   2.619469   3.559059   3.884962   0.000000
     6  H    2.622084   2.379134   3.839842   4.387162   1.100514
     7  O    1.423509   2.070695   2.275040   2.554260   1.417056
     8  C    1.524733   2.165917   2.425602   2.501518   2.860716
     9  H    2.133762   3.055565   2.676103   2.339513   3.224701
    10  O    2.384133   2.647631   2.843853   2.977948   4.130374
    11  H    3.204811   3.472423   3.758672   3.779815   4.605989
    12  C    2.500765   2.766834   3.740379   3.915633   2.490551
    13  H    2.749146   2.559714   4.030700   4.430950   2.752483
    14  O    3.709074   4.051481   4.772528   4.760871   3.769468
    15  H    4.417784   4.668854   5.582376   5.610656   4.002327
    16  C    2.897941   3.266402   4.170977   4.305796   1.525596
    17  H    3.356476   3.991655   4.434490   4.332722   2.162883
    18  O    4.149840   4.259637   5.484442   5.704107   2.386510
    19  C    3.661308   3.962088   4.599738   4.815511   1.516947
    20  H    4.499501   4.666418   5.562150   5.811879   2.148520
    21  H    3.952389   4.508455   4.744797   4.739659   2.134760
    22  O    4.044247   4.190533   4.718792   5.055007   2.404861
    23  H    3.526722   3.754532   3.977474   4.306609   2.474912
    24  C    5.268421   5.528788   6.540405   6.606979   3.506723
    25  H    5.419509   5.836384   6.586335   6.548813   3.538855
    26  C    6.787638   7.214191   7.929357   7.780378   5.523409
    27  H    6.885102   7.429434   7.948364   7.715488   5.517997
    28  O    5.514184   5.852432   6.728067   6.690191   4.276269
    29  C    6.512357   6.599907   7.834588   7.993910   4.591741
    30  H    6.615580   6.560644   7.976277   8.215758   4.900742
    31  O    6.822196   6.839995   8.118171   8.349546   4.626710
    32  H    6.293526   6.196680   7.595256   7.921164   4.098799
    33  C    7.730079   7.933452   9.006003   9.048978   5.864785
    34  H    7.868447   8.179603   9.077677   9.049531   5.904930
    35  O    8.915631   9.010691  10.227982  10.334780   6.994333
    36  H    9.013217   9.058715  10.328029  10.485801   6.948321
    37  C    7.862196   8.143466   9.093043   9.044313   6.349899
    38  H    8.002995   8.170669   9.269777   9.290848   6.634069
    39  O    9.077923   9.436199  10.254897  10.122680   7.573813
    40  H    9.738417  10.029332  10.957248  10.876649   8.108849
    41  C    7.182527   7.661863   8.214244   7.975306   6.375726
    42  H    8.196365   8.715540   9.189712   8.895350   7.340113
    43  H    7.330648   7.683134   8.405824   8.252327   6.647174
    44  O    6.483137   7.103379   7.355797   6.997759   6.033817
    45  H    5.561758   6.157158   6.462965   6.157080   5.227328
                    6          7          8          9         10
     6  H    0.000000
     7  O    2.068170   0.000000
     8  C    3.252464   2.381500   0.000000
     9  H    3.901020   2.600340   1.103141   0.000000
    10  O    4.291444   3.608604   1.402359   2.075109   0.000000
    11  H    4.800422   4.280720   1.914066   2.375289   0.963316
    12  C    2.763830   2.825932   1.522043   2.139479   2.404996
    13  H    2.568623   3.236705   2.137280   3.042184   2.619946
    14  O    4.113150   4.093020   2.349435   2.580986   2.767971
    15  H    4.284415   4.610843   3.193909   3.430050   3.676876
    16  C    2.151563   2.411915   2.507044   2.753389   3.742595
    17  H    3.063329   2.719390   2.818762   2.614604   4.114764
    18  O    2.579165   3.636202   3.761141   4.105273   4.815560
    19  C    2.145094   2.343445   4.237606   4.355571   5.571926
    20  H    2.481135   3.300392   4.906949   5.088825   6.207082
    21  H    3.045872   2.586074   4.353712   4.189049   5.748570
    22  O    2.641589   2.756716   5.016732   5.208800   6.259104
    23  H    2.787758   2.294989   4.667488   4.823689   5.854939
    24  C    3.893054   4.669394   4.672366   4.765803   5.720563
    25  H    4.154886   4.596532   4.935744   4.825235   6.127062
    26  C    6.046332   6.400422   5.763996   5.580078   6.569503
    27  H    6.190072   6.324481   5.965100   5.620888   6.914716
    28  O    4.710975   5.200435   4.549196   4.546204   5.383838
    29  C    4.720176   5.899509   6.006345   6.218538   6.966317
    30  H    4.831293   6.205658   6.048049   6.412626   6.832987
    31  O    4.656611   6.008764   6.619219   6.869646   7.687665
    32  H    3.951530   5.511474   6.241977   6.614264   7.287721
    33  C    6.135595   7.089604   7.075677   7.120407   8.018144
    34  H    6.318659   7.071432   7.293851   7.207423   8.356643
    35  O    7.119780   8.290896   8.303514   8.433685   9.183694
    36  H    7.011274   8.295063   8.556416   8.728947   9.502103
    37  C    6.700962   7.420585   6.940147   6.899948   7.722796
    38  H    6.841308   7.722220   7.022855   7.116029   7.646273
    39  O    8.005645   8.589231   8.112961   7.949429   8.892789
    40  H    8.461612   9.210224   8.838899   8.740899   9.628108
    41  C    6.917849   7.039932   5.927722   5.659021   6.481051
    42  H    7.922180   7.997806   6.945577   6.596830   7.498007
    43  H    7.040530   7.348924   6.022076   5.920945   6.390456
    44  O    6.702389   6.430113   5.158625   4.703342   5.677150
    45  H    5.863414   5.587368   4.216680   3.832476   4.742852
                   11         12         13         14         15
    11  H    0.000000
    12  C    2.452078   0.000000
    13  H    2.723257   1.099918   0.000000
    14  O    2.292633   1.414501   2.066321   0.000000
    15  H    3.188359   1.939591   2.368673   0.966361   0.000000
    16  C    3.904012   1.522876   2.133208   2.462541   2.560791
    17  H    4.200980   2.153302   3.043868   2.664872   2.787205
    18  O    4.832801   2.425536   2.590713   3.005356   2.618854
    19  C    6.033135   3.858913   4.186094   4.979133   5.067119
    20  H    6.564310   4.209910   4.422697   5.212488   5.096858
    21  H    6.156573   4.104437   4.678469   5.043768   5.166789
    22  O    6.870831   4.892994   5.067378   6.145151   6.315038
    23  H    6.552136   4.837958   5.060931   6.127786   6.441452
    24  C    5.573690   3.346726   3.719889   3.424775   2.797380
    25  H    6.053744   3.836759   4.398069   3.994247   3.527657
    26  C    6.111927   4.574060   5.141793   3.864791   3.119842
    27  H    6.545286   4.928149   5.632981   4.371619   3.783805
    28  O    5.014182   3.239865   3.738458   2.724946   1.948616
    29  C    6.790071   4.584497   4.686123   4.635485   3.853787
    30  H    6.599353   4.546571   4.431691   4.526318   3.680771
    31  O    7.663934   5.297452   5.318642   5.654516   4.987728
    32  H    7.351439   4.960080   4.840842   5.518074   4.939669
    33  C    7.728178   5.693538   5.940916   5.459058   4.613392
    34  H    8.127081   6.030553   6.415668   5.875978   5.127852
    35  O    8.875503   6.863277   6.960415   6.633100   5.735345
    36  H    9.281292   7.131688   7.172505   7.082866   6.225565
    37  C    7.268998   5.596560   5.943065   4.991032   4.109302
    38  H    7.127715   5.612070   5.795948   4.921634   3.975379
    39  O    8.393072   6.850006   7.278207   6.146403   5.310922
    40  H    9.147283   7.512612   7.848568   6.883049   6.004817
    41  C    5.849250   4.911288   5.531170   3.828130   3.205670
    42  H    6.847715   5.977935   6.618056   4.893827   4.294774
    43  H    5.676197   4.923229   5.364666   3.737155   3.029242
    44  O    5.053844   4.453014   5.260442   3.320927   3.046121
    45  H    4.148380   3.510684   4.334637   2.373961   2.209980
                   16         17         18         19         20
    16  C    0.000000
    17  H    1.097823   0.000000
    18  O    1.430821   2.078243   0.000000
    19  C    2.536445   2.734991   2.970493   0.000000
    20  H    2.783423   3.054310   2.654138   1.091368   0.000000
    21  H    2.750208   2.491961   3.361580   1.099519   1.778789
    22  O    3.768067   4.050533   4.219058   1.404832   2.025133
    23  H    3.915193   4.158489   4.645702   1.912083   2.804602
    24  C    2.375029   2.413082   1.384591   3.726408   3.249636
    25  H    2.607104   2.251259   2.051787   3.391386   2.954692
    26  C    4.121995   3.734032   3.567713   5.819447   5.473339
    27  H    4.239055   3.615680   3.852415   5.583259   5.274547
    28  O    2.833881   2.700251   2.267894   4.791618   4.513626
    29  C    3.691838   3.896036   2.366647   4.626355   3.851196
    30  H    3.963271   4.378189   2.582351   5.195326   4.468137
    31  O    4.165381   4.435088   2.877323   4.293329   3.307460
    32  H    3.861242   4.336230   2.596069   3.840481   2.851579
    33  C    4.839974   4.767115   3.684491   5.772493   5.008789
    34  H    4.987006   4.724264   3.997666   5.573250   4.821410
    35  O    6.062109   6.104160   4.782223   6.856912   5.980025
    36  H    6.203264   6.307892   4.879771   6.662726   5.699609
    37  C    5.061259   4.872040   4.123401   6.517079   5.938811
    38  H    5.312143   5.306701   4.301451   6.988220   6.410907
    39  O    6.292029   5.949464   5.443608   7.617458   7.036684
    40  H    6.899530   6.640328   5.911925   8.077782   7.394008
    41  C    4.877709   4.447064   4.599374   6.892326   6.704988
    42  H    5.869499   5.352021   5.557422   7.738114   7.511386
    43  H    5.127577   4.912091   4.745068   7.325973   7.110730
    44  O    4.574974   3.984807   4.724350   6.645189   6.682126
    45  H    3.766099   3.269683   4.049924   5.978195   6.085633
                   21         22         23         24         25
    21  H    0.000000
    22  O    2.078356   0.000000
    23  H    2.354594   0.963269   0.000000
    24  C    3.802262   5.073432   5.572527   0.000000
    25  H    3.196083   4.756145   5.266617   1.103502   0.000000
    26  C    5.585688   7.218056   7.612730   2.375504   2.599263
    27  H    5.168364   6.969320   7.363727   2.601377   2.336050
    28  O    4.737395   6.171094   6.526911   1.410733   2.057675
    29  C    4.862394   5.829660   6.487261   1.518163   2.163654
    30  H    5.574929   6.343303   6.960362   2.130947   3.055766
    31  O    4.650922   5.285873   6.083845   2.427550   2.672147
    32  H    4.406192   4.710526   5.511031   2.645844   3.007253
    33  C    5.787992   7.017828   7.679684   2.465890   2.728407
    34  H    5.427445   6.798329   7.474579   2.715801   2.513030
    35  O    6.976844   8.002432   8.737312   3.730080   4.065193
    36  H    6.853368   7.697494   8.497231   3.965136   4.222272
    37  C    6.424810   7.861209   8.395575   2.866796   3.234822
    38  H    7.028921   8.309144   8.826518   3.269187   3.918894
    39  O    7.394699   8.960448   9.503272   4.119803   4.240832
    40  H    7.924373   9.373995   9.985195   4.612666   4.770206
    41  C    6.606050   8.292161   8.559293   3.649723   3.926611
    42  H    7.370962   9.142154   9.434332   4.480568   4.619705
    43  H    7.183619   8.703915   8.970115   3.958778   4.493805
    44  O    6.243847   8.009228   8.126954   4.020697   4.137272
    45  H    5.659745   7.315072   7.389144   3.587934   3.807787
                   26         27         28         29         30
    26  C    0.000000
    27  H    1.098658   0.000000
    28  O    1.428648   2.069451   0.000000
    29  C    2.887775   3.256306   2.387242   0.000000
    30  H    3.280786   3.928700   2.627780   1.097587   0.000000
    31  O    4.144916   4.269627   3.640275   1.410478   2.082447
    32  H    4.700574   4.886308   3.926694   1.938139   2.291213
    33  C    2.485215   2.743462   2.803705   1.519751   2.151633
    34  H    2.736240   2.534429   3.212028   2.136718   3.049418
    35  O    3.703419   4.038222   4.068745   2.426726   2.661177
    36  H    4.400503   4.624451   4.589651   2.551346   2.866536
    37  C    1.522668   2.156403   2.391606   2.512012   2.781196
    38  H    2.148767   3.060355   2.647723   2.771315   2.587714
    39  O    2.373545   2.612264   3.612289   3.749841   4.099454
    40  H    3.200152   3.447560   4.293301   3.932740   4.222093
    41  C    1.515072   2.139297   2.348726   4.271438   4.433367
    42  H    2.135762   2.467169   3.300111   4.936601   5.164733
    43  H    2.138149   3.044368   2.599193   4.410297   4.295598
    44  O    2.406404   2.631717   2.760728   5.031251   5.267380
    45  H    2.556850   2.877417   2.371136   4.751774   4.927483
                   31         32         33         34         35
    31  O    0.000000
    32  H    0.961805   0.000000
    33  C    2.358342   3.199520   0.000000
    34  H    2.558404   3.467875   1.100543   0.000000
    35  O    2.844709   3.677022   1.410341   2.067747   0.000000
    36  H    2.454004   3.270756   1.930544   2.325227   0.962654
    37  C    3.719035   4.431543   1.522381   2.137429   2.360552
    38  H    4.059184   4.644436   2.139394   3.040739   2.573315
    39  O    4.762947   5.585404   2.412451   2.611229   2.819851
    40  H    4.782430   5.647583   2.482974   2.738686   2.376404
    41  C    5.597128   6.083953   3.871428   4.177841   4.914395
    42  H    6.212350   6.809669   4.222556   4.411564   5.121542
    43  H    5.808869   6.220671   4.136364   4.689451   5.002631
    44  O    6.272227   6.641951   4.887494   5.037629   6.083861
    45  H    5.960176   6.200922   4.904683   5.120729   6.153606
                   36         37         38         39         40
    36  H    0.000000
    37  C    3.200026   0.000000
    38  H    3.450168   1.100227   0.000000
    39  O    3.692959   1.406378   2.074994   0.000000
    40  H    3.235494   1.920896   2.364475   0.963152   0.000000
    41  C    5.716966   2.561032   2.777832   2.979966   3.886478
    42  H    5.978090   2.814687   3.132533   2.682099   3.595009
    43  H    5.841715   2.775840   2.538621   3.342184   4.115404
    44  O    6.801991   3.785420   4.074708   4.243280   5.183611
    45  H    6.798005   3.984824   4.191279   4.716471   5.616008
                   41         42         43         44         45
    41  C    0.000000
    42  H    1.089653   0.000000
    43  H    1.099227   1.775794   0.000000
    44  O    1.407512   2.028123   2.083268   0.000000
    45  H    1.938223   2.826581   2.346664   0.964462   0.000000
 Stoichiometry    C12H22O11
 Framework group  C1[X(C12H22O11)]
 Deg. of freedom   129
 Full point group                 C1      NOp   1
 Largest Abelian subgroup         C1      NOp   1
 Largest concise Abelian subgroup C1      NOp   1
                         Standard orientation:                         
 ---------------------------------------------------------------------
 Center     Atomic      Atomic             Coordinates (Angstroms)
 Number     Number       Type             X           Y           Z
 ---------------------------------------------------------------------
      1          6           0        4.065974   -0.256526   -0.231120
      2          1           0        4.243223    0.122721   -1.245039
      3          8           0        5.293501   -0.602154    0.283481
      4          1           0        5.155331   -1.108216    1.090227
      5          6           0        2.309850    1.324180    0.051179
      6          1           0        2.491422    1.707837   -0.964188
      7          8           0        3.504149    0.771823    0.577106
      8          6           0        3.074464   -1.414386   -0.263968
      9          1           0        2.929701   -1.756561    0.774723
     10          8           0        3.594343   -2.438130   -1.069129
     11          1           0        2.880415   -3.070824   -1.203226
     12          6           0        1.729471   -0.943738   -0.798851
     13          1           0        1.868909   -0.624441   -1.842128
     14          8           0        0.870138   -2.066210   -0.749681
     15          1           0       -0.019042   -1.763993   -0.977447
     16          6           0        1.222314    0.256011   -0.009836
     17          1           0        0.951562   -0.062466    1.005290
     18          8           0        0.084540    0.833190   -0.657589
     19          6           0        1.950135    2.483331    0.961181
     20          1           0        1.037416    2.964316    0.605257
     21          1           0        1.766049    2.086083    1.969768
     22          8           0        2.970785    3.448638    0.963976
     23          1           0        3.787869    2.975032    1.153603
     24          6           0       -1.124689    0.619707   -0.017837
     25          1           0       -1.066300    0.935197    1.037991
     26          6           0       -2.611555   -1.115110    0.632286
     27          1           0       -2.530752   -0.770677    1.672424
     28          8           0       -1.423170   -0.757876   -0.075640
     29          6           0       -2.212971    1.395297   -0.738199
     30          1           0       -2.226342    1.068379   -1.785884
     31          8           0       -2.025591    2.789102   -0.630291
     32          1           0       -1.231767    3.022353   -1.120705
     33          6           0       -3.547836    1.071442   -0.087895
     34          1           0       -3.525462    1.444700    0.947176
     35          8           0       -4.626007    1.647096   -0.791621
     36          1           0       -4.462536    2.594344   -0.843603
     37          6           0       -3.792050   -0.430560   -0.043245
     38          1           0       -3.873767   -0.797169   -1.077373
     39          8           0       -4.952416   -0.727430    0.693856
     40          1           0       -5.654994   -0.168609    0.344908
     41          6           0       -2.659495   -2.629382    0.621124
     42          1           0       -3.544505   -2.961534    1.163135
     43          1           0       -2.740650   -2.971761   -0.420265
     44          8           0       -1.529596   -3.169879    1.263215
     45          1           0       -0.742859   -2.851667    0.804986
 ---------------------------------------------------------------------
 Rotational constants (GHZ):           0.4007221           0.1535021           0.1200548
 Leave Link  202 at Thu Mar 16 17:36:41 2023, MaxMem=   262144000 cpu:               0.0 elap:               0.0
 (Enter /dragofs/sw/campus/0.2/software/gaussian/16.gaussian/gaussian/g16_legacy/l301.exe)
 Standard basis: 6-311G(d,p) (5D, 7F)
 Ernie: Thresh=  0.10000D-02 Tol=  0.10000D-05 Strict=F.
 There are   569 symmetry adapted cartesian basis functions of A   symmetry.
 There are   546 symmetry adapted basis functions of A   symmetry.
   546 basis functions,   912 primitive gaussians,   569 cartesian basis functions
    91 alpha electrons       91 beta electrons
       nuclear repulsion energy      2318.2834476922 Hartrees.
 IExCor= 4336 DFT=T Ex+Corr=M062X ExCW=0 ScaHFX=  0.540000
 ScaDFX=  1.000000  1.000000  1.000000  1.000000 ScalE2=  1.000000  1.000000
 IRadAn=      5 IRanWt=     -1 IRanGd=            0 ICorTp=0 IEmpDi=  4
 NAtoms=   45 NActive=   45 NUniq=   45 SFac= 1.00D+00 NAtFMM=   60 NAOKFM=F Big=F
 Integral buffers will be    131072 words long.
 Raffenetti 2 integral format.
 Two-electron integral symmetry is turned on.
 Leave Link  301 at Thu Mar 16 17:36:41 2023, MaxMem=   262144000 cpu:               0.4 elap:               0.1
 (Enter /dragofs/sw/campus/0.2/software/gaussian/16.gaussian/gaussian/g16_legacy/l302.exe)
 NPDir=0 NMtPBC=     1 NCelOv=     1 NCel=       1 NClECP=     1 NCelD=      1
         NCelK=      1 NCelE2=     1 NClLst=     1 CellRange=     0.0.
 One-electron integrals computed using PRISM.
 One-electron integral symmetry used in STVInt
 NBasis=   546 RedAO= T EigKep=  6.89D-04  NBF=   546
 NBsUse=   546 1.00D-06 EigRej= -1.00D+00 NBFU=   546
 Precomputing XC quadrature grid using
 IXCGrd= 4 IRadAn=           5 IRanWt=          -1 IRanGd=           0 AccXCQ= 0.00D+00.
 Generated NRdTot=       0 NPtTot=           0 NUsed=           0 NTot=          32
 NSgBfM=   557   557   557   557   557 MxSgAt=    45 MxSgA2=    45.
 Leave Link  302 at Thu Mar 16 17:36:42 2023, MaxMem=   262144000 cpu:               6.0 elap:               0.8
 (Enter /dragofs/sw/campus/0.2/software/gaussian/16.gaussian/gaussian/g16_legacy/l303.exe)
 DipDrv:  MaxL=1.
 Leave Link  303 at Thu Mar 16 17:36:42 2023, MaxMem=   262144000 cpu:               0.6 elap:               0.1
 (Enter /dragofs/sw/campus/0.2/software/gaussian/16.gaussian/gaussian/g16_legacy/l401.exe)
 ExpMin= 1.03D-01 ExpMax= 8.59D+03 ExpMxC= 1.30D+03 IAcc=3 IRadAn=         5 AccDes= 0.00D+00
 Harris functional with IExCor= 1009 and IRadAn=       5 diagonalized for initial guess.
 HarFok:  IExCor= 1009 AccDes= 0.00D+00 IRadAn=         5 IDoV= 1 UseB2=F ITyADJ=14
 ICtDFT=  3500011 ScaDFX=  1.000000  1.000000  1.000000  1.000000
 FoFCou: FMM=F IPFlag=           0 FMFlag=      100000 FMFlg1=           0
         NFxFlg=           0 DoJE=T BraDBF=F KetDBF=T FulRan=T
         wScrn=  0.000000 ICntrl=       500 IOpCl=  0 I1Cent=   200000004 NGrid=           0
         NMat0=    1 NMatS0=      1 NMatT0=    0 NMatD0=    1 NMtDS0=    0 NMtDT0=    0
 Petite list used in FoFCou.
 Harris En= -1297.12333171700    
 JPrj=0 DoOrth=F DoCkMO=F.
 Leave Link  401 at Thu Mar 16 17:36:47 2023, MaxMem=   262144000 cpu:              37.6 elap:               4.7
 (Enter /dragofs/sw/campus/0.2/software/gaussian/16.gaussian/gaussian/g16_legacy/l502.exe)
 Integral symmetry usage will be decided dynamically.
 Closed shell SCF:
 Using DIIS extrapolation, IDIIS=  1040.
 NGot=   262144000 LenX=   261486196 LenY=   261161866
 Requested convergence on RMS density matrix=1.00D-08 within 128 cycles.
 Requested convergence on MAX density matrix=1.00D-06.
 Requested convergence on             energy=1.00D-06.
 No special actions if energy rises.
 Fock matrices will be formed incrementally for  20 cycles.
 Integral accuracy reduced to 1.0D-05 until final iterations.

 Cycle   1  Pass 0  IDiag  1:
 FoFJK:  IHMeth= 1 ICntrl=       0 DoSepK=F KAlg= 0 I1Cent=           0 FoldK=F
 IRaf= 740000000 NMat=       1 IRICut=       1 DoRegI=T DoRafI=F ISym2E= 0 IDoP0=0 IntGTp=1.
 FoFCou: FMM=F IPFlag=           0 FMFlag=      100000 FMFlg1=           0
         NFxFlg=           0 DoJE=F BraDBF=F KetDBF=F FulRan=T
         wScrn=  0.000000 ICntrl=         0 IOpCl=  0 I1Cent=           0 NGrid=           0
         NMat0=    1 NMatS0=      1 NMatT0=    0 NMatD0=    1 NMtDS0=    0 NMtDT0=    0
 Symmetry not used in FoFCou.
 E= -1297.34303233314    
 DIIS: error= 1.77D-02 at cycle   1 NSaved=   1.
 NSaved= 1 IEnMin= 1 EnMin= -1297.34303233314     IErMin= 1 ErrMin= 1.77D-02
 ErrMax= 1.77D-02  0.00D+00 EMaxC= 1.00D-01 BMatC= 8.51D-01 BMatP= 8.51D-01
 IDIUse=3 WtCom= 8.23D-01 WtEn= 1.77D-01
 Coeff-Com:  0.100D+01
 Coeff-En:   0.100D+01
 Coeff:      0.100D+01
 Gap=     0.427 Goal=   None    Shift=    0.000
 GapD=    0.427 DampG=2.000 DampE=0.500 DampFc=1.0000 IDamp=-1.
 RMSDP=2.61D-03 MaxDP=2.04D-01              OVMax= 1.08D-01

 Cycle   2  Pass 0  IDiag  1:
 RMSU=  2.60D-03    CP:  1.03D+00
 E= -1297.43128236301     Delta-E=       -0.088250029870 Rises=F Damp=F
 DIIS: error= 1.90D-02 at cycle   2 NSaved=   2.
 NSaved= 2 IEnMin= 2 EnMin= -1297.43128236301     IErMin= 1 ErrMin= 1.77D-02
 ErrMax= 1.90D-02  0.00D+00 EMaxC= 1.00D-01 BMatC= 6.02D-01 BMatP= 8.51D-01
 IDIUse=3 WtCom= 8.10D-01 WtEn= 1.90D-01
 Coeff-Com:  0.453D+00 0.547D+00
 Coeff-En:   0.444D+00 0.556D+00
 Coeff:      0.451D+00 0.549D+00
 Gap=     0.414 Goal=   None    Shift=    0.000
 RMSDP=1.47D-03 MaxDP=1.02D-01 DE=-8.83D-02 OVMax= 5.72D-02

 Cycle   3  Pass 0  IDiag  1:
 RMSU=  4.55D-04    CP:  1.01D+00  4.66D-01
 E= -1297.81750825028     Delta-E=       -0.386225887267 Rises=F Damp=F
 DIIS: error= 3.51D-03 at cycle   3 NSaved=   3.
 NSaved= 3 IEnMin= 3 EnMin= -1297.81750825028     IErMin= 3 ErrMin= 3.51D-03
 ErrMax= 3.51D-03  0.00D+00 EMaxC= 1.00D-01 BMatC= 2.26D-02 BMatP= 6.02D-01
 IDIUse=3 WtCom= 9.65D-01 WtEn= 3.51D-02
 Coeff-Com:  0.661D-01 0.188D+00 0.745D+00
 Coeff-En:   0.000D+00 0.000D+00 0.100D+01
 Coeff:      0.638D-01 0.182D+00 0.754D+00
 Gap=     0.395 Goal=   None    Shift=    0.000
 RMSDP=2.70D-04 MaxDP=1.12D-02 DE=-3.86D-01 OVMax= 1.28D-02

 Cycle   4  Pass 0  IDiag  1:
 RMSU=  1.88D-04    CP:  1.02D+00  5.20D-01  7.12D-01
 E= -1297.83058634885     Delta-E=       -0.013078098574 Rises=F Damp=F
 DIIS: error= 1.30D-03 at cycle   4 NSaved=   4.
 NSaved= 4 IEnMin= 4 EnMin= -1297.83058634885     IErMin= 4 ErrMin= 1.30D-03
 ErrMax= 1.30D-03  0.00D+00 EMaxC= 1.00D-01 BMatC= 2.72D-03 BMatP= 2.26D-02
 IDIUse=3 WtCom= 9.87D-01 WtEn= 1.30D-02
 Coeff-Com:  0.282D-02 0.484D-01 0.346D+00 0.603D+00
 Coeff-En:   0.000D+00 0.000D+00 0.467D-01 0.953D+00
 Coeff:      0.279D-02 0.477D-01 0.342D+00 0.607D+00
 Gap=     0.387 Goal=   None    Shift=    0.000
 RMSDP=1.01D-04 MaxDP=3.50D-03 DE=-1.31D-02 OVMax= 4.59D-03

 Cycle   5  Pass 0  IDiag  1:
 RMSU=  3.64D-05    CP:  1.01D+00  5.14D-01  8.10D-01  5.70D-01
 E= -1297.83295345960     Delta-E=       -0.002367110750 Rises=F Damp=F
 DIIS: error= 1.50D-04 at cycle   5 NSaved=   5.
 NSaved= 5 IEnMin= 5 EnMin= -1297.83295345960     IErMin= 5 ErrMin= 1.50D-04
 ErrMax= 1.50D-04  0.00D+00 EMaxC= 1.00D-01 BMatC= 4.48D-05 BMatP= 2.72D-03
 IDIUse=3 WtCom= 9.99D-01 WtEn= 1.50D-03
 Coeff-Com: -0.185D-02 0.657D-02 0.645D-01 0.175D+00 0.755D+00
 Coeff-En:   0.000D+00 0.000D+00 0.000D+00 0.000D+00 0.100D+01
 Coeff:     -0.184D-02 0.656D-02 0.644D-01 0.175D+00 0.756D+00
 Gap=     0.386 Goal=   None    Shift=    0.000
 RMSDP=1.50D-05 MaxDP=6.87D-04 DE=-2.37D-03 OVMax= 8.18D-04

 Cycle   6  Pass 0  IDiag  1:
 RMSU=  1.06D-05    CP:  1.01D+00  5.15D-01  8.11D-01  6.14D-01  8.35D-01
 E= -1297.83298228595     Delta-E=       -0.000028826344 Rises=F Damp=F
 DIIS: error= 6.25D-05 at cycle   6 NSaved=   6.
 NSaved= 6 IEnMin= 6 EnMin= -1297.83298228595     IErMin= 6 ErrMin= 6.25D-05
 ErrMax= 6.25D-05  0.00D+00 EMaxC= 1.00D-01 BMatC= 8.28D-06 BMatP= 4.48D-05
 IDIUse=1 WtCom= 1.00D+00 WtEn= 0.00D+00
 Coeff-Com: -0.110D-02 0.402D-03 0.112D-01 0.516D-01 0.363D+00 0.575D+00
 Coeff:     -0.110D-02 0.402D-03 0.112D-01 0.516D-01 0.363D+00 0.575D+00
 Gap=     0.386 Goal=   None    Shift=    0.000
 RMSDP=4.81D-06 MaxDP=3.43D-04 DE=-2.88D-05 OVMax= 2.85D-04

 Initial convergence to 1.0D-05 achieved.  Increase integral accuracy.
 Cycle   7  Pass 1  IDiag  1:
 E= -1297.83288342020     Delta-E=        0.000098865752 Rises=F Damp=F
 DIIS: error= 3.02D-05 at cycle   1 NSaved=   1.
 NSaved= 1 IEnMin= 1 EnMin= -1297.83288342020     IErMin= 1 ErrMin= 3.02D-05
 ErrMax= 3.02D-05  0.00D+00 EMaxC= 1.00D-01 BMatC= 1.18D-06 BMatP= 1.18D-06
 IDIUse=1 WtCom= 1.00D+00 WtEn= 0.00D+00
 Coeff-Com:  0.100D+01
 Coeff:      0.100D+01
 Gap=     0.386 Goal=   None    Shift=    0.000
 RMSDP=4.81D-06 MaxDP=3.43D-04 DE= 9.89D-05 OVMax= 1.52D-04

 Cycle   8  Pass 1  IDiag  1:
 RMSU=  1.58D-05    CP:  1.00D+00
 E= -1297.83288414179     Delta-E=       -0.000000721599 Rises=F Damp=F
 DIIS: error= 2.65D-05 at cycle   2 NSaved=   2.
 NSaved= 2 IEnMin= 2 EnMin= -1297.83288414179     IErMin= 2 ErrMin= 2.65D-05
 ErrMax= 2.65D-05  0.00D+00 EMaxC= 1.00D-01 BMatC= 5.89D-07 BMatP= 1.18D-06
 IDIUse=1 WtCom= 1.00D+00 WtEn= 0.00D+00
 Coeff-Com:  0.385D+00 0.615D+00
 Coeff:      0.385D+00 0.615D+00
 Gap=     0.386 Goal=   None    Shift=    0.000
 RMSDP=1.50D-06 MaxDP=1.27D-04 DE=-7.22D-07 OVMax= 8.77D-05

 Cycle   9  Pass 1  IDiag  1:
 RMSU=  1.49D-06    CP:  1.00D+00  1.01D+00
 E= -1297.83288445656     Delta-E=       -0.000000314765 Rises=F Damp=F
 DIIS: error= 1.16D-05 at cycle   3 NSaved=   3.
 NSaved= 3 IEnMin= 3 EnMin= -1297.83288445656     IErMin= 3 ErrMin= 1.16D-05
 ErrMax= 1.16D-05  0.00D+00 EMaxC= 1.00D-01 BMatC= 1.17D-07 BMatP= 5.89D-07
 IDIUse=1 WtCom= 1.00D+00 WtEn= 0.00D+00
 Coeff-Com: -0.251D-01 0.300D+00 0.725D+00
 Coeff:     -0.251D-01 0.300D+00 0.725D+00
 Gap=     0.386 Goal=   None    Shift=    0.000
 RMSDP=5.73D-07 MaxDP=3.65D-05 DE=-3.15D-07 OVMax= 3.39D-05

 Cycle  10  Pass 1  IDiag  1:
 RMSU=  2.61D-07    CP:  1.00D+00  1.03D+00  7.17D-01
 E= -1297.83288453516     Delta-E=       -0.000000078602 Rises=F Damp=F
 DIIS: error= 7.11D-07 at cycle   4 NSaved=   4.
 NSaved= 4 IEnMin= 4 EnMin= -1297.83288453516     IErMin= 4 ErrMin= 7.11D-07
 ErrMax= 7.11D-07  0.00D+00 EMaxC= 1.00D-01 BMatC= 9.54D-10 BMatP= 1.17D-07
 IDIUse=1 WtCom= 1.00D+00 WtEn= 0.00D+00
 Coeff-Com: -0.122D-01 0.788D-01 0.215D+00 0.719D+00
 Coeff:     -0.122D-01 0.788D-01 0.215D+00 0.719D+00
 Gap=     0.386 Goal=   None    Shift=    0.000
 RMSDP=8.11D-08 MaxDP=3.57D-06 DE=-7.86D-08 OVMax= 3.72D-06

 Cycle  11  Pass 1  IDiag  1:
 RMSU=  7.67D-08    CP:  1.00D+00  1.03D+00  7.32D-01  9.63D-01
 E= -1297.83288453583     Delta-E=       -0.000000000668 Rises=F Damp=F
 DIIS: error= 2.97D-07 at cycle   5 NSaved=   5.
 NSaved= 5 IEnMin= 5 EnMin= -1297.83288453583     IErMin= 5 ErrMin= 2.97D-07
 ErrMax= 2.97D-07  0.00D+00 EMaxC= 1.00D-01 BMatC= 1.89D-10 BMatP= 9.54D-10
 IDIUse=1 WtCom= 1.00D+00 WtEn= 0.00D+00
 Coeff-Com: -0.872D-03-0.144D-01-0.251D-01 0.279D+00 0.761D+00
 Coeff:     -0.872D-03-0.144D-01-0.251D-01 0.279D+00 0.761D+00
 Gap=     0.386 Goal=   None    Shift=    0.000
 RMSDP=2.97D-08 MaxDP=1.24D-06 DE=-6.68D-10 OVMax= 1.68D-06

 Cycle  12  Pass 1  IDiag  1:
 RMSU=  1.87D-08    CP:  1.00D+00  1.03D+00  7.32D-01  1.05D+00  8.98D-01
 E= -1297.83288453603     Delta-E=       -0.000000000198 Rises=F Damp=F
 DIIS: error= 1.17D-07 at cycle   6 NSaved=   6.
 NSaved= 6 IEnMin= 6 EnMin= -1297.83288453603     IErMin= 6 ErrMin= 1.17D-07
 ErrMax= 1.17D-07  0.00D+00 EMaxC= 1.00D-01 BMatC= 2.25D-11 BMatP= 1.89D-10
 IDIUse=1 WtCom= 1.00D+00 WtEn= 0.00D+00
 Coeff-Com:  0.847D-03-0.143D-01-0.329D-01 0.507D-01 0.329D+00 0.667D+00
 Coeff:      0.847D-03-0.143D-01-0.329D-01 0.507D-01 0.329D+00 0.667D+00
 Gap=     0.386 Goal=   None    Shift=    0.000
 RMSDP=9.82D-09 MaxDP=4.42D-07 DE=-1.98D-10 OVMax= 5.64D-07

 SCF Done:  E(RM062X) =  -1297.83288454     A.U. after   12 cycles
            NFock= 12  Conv=0.98D-08     -V/T= 2.0029
 KE= 1.294103789091D+03 PE=-7.683404866200D+03 EE= 2.773184744881D+03
 Leave Link  502 at Thu Mar 16 17:39:38 2023, MaxMem=   262144000 cpu:            1362.8 elap:             171.2
 (Enter /dragofs/sw/campus/0.2/software/gaussian/16.gaussian/gaussian/g16_legacy/l601.exe)
 Copying SCF densities to generalized density rwf, IOpCl= 0 IROHF=0.

 **********************************************************************

            Population analysis using the SCF density.

 **********************************************************************

 Orbital symmetries:
       Occupied  (A) (A) (A) (A) (A) (A) (A) (A) (A) (A) (A) (A)
                 (A) (A) (A) (A) (A) (A) (A) (A) (A) (A) (A) (A)
                 (A) (A) (A) (A) (A) (A) (A) (A) (A) (A) (A) (A)
                 (A) (A) (A) (A) (A) (A) (A) (A) (A) (A) (A) (A)
                 (A) (A) (A) (A) (A) (A) (A) (A) (A) (A) (A) (A)
                 (A) (A) (A) (A) (A) (A) (A) (A) (A) (A) (A) (A)
                 (A) (A) (A) (A) (A) (A) (A) (A) (A) (A) (A) (A)
                 (A) (A) (A) (A) (A) (A) (A)
       Virtual   (A) (A) (A) (A) (A) (A) (A) (A) (A) (A) (A) (A)
                 (A) (A) (A) (A) (A) (A) (A) (A) (A) (A) (A) (A)
                 (A) (A) (A) (A) (A) (A) (A) (A) (A) (A) (A) (A)
                 (A) (A) (A) (A) (A) (A) (A) (A) (A) (A) (A) (A)
                 (A) (A) (A) (A) (A) (A) (A) (A) (A) (A) (A) (A)
                 (A) (A) (A) (A) (A) (A) (A) (A) (A) (A) (A) (A)
                 (A) (A) (A) (A) (A) (A) (A) (A) (A) (A) (A) (A)
                 (A) (A) (A) (A) (A) (A) (A) (A) (A) (A) (A) (A)
                 (A) (A) (A) (A) (A) (A) (A) (A) (A) (A) (A) (A)
                 (A) (A) (A) (A) (A) (A) (A) (A) (A) (A) (A) (A)
                 (A) (A) (A) (A) (A) (A) (A) (A) (A) (A) (A) (A)
                 (A) (A) (A) (A) (A) (A) (A) (A) (A) (A) (A) (A)
                 (A) (A) (A) (A) (A) (A) (A) (A) (A) (A) (A) (A)
                 (A) (A) (A) (A) (A) (A) (A) (A) (A) (A) (A) (A)
                 (A) (A) (A) (A) (A) (A) (A) (A) (A) (A) (A) (A)
                 (A) (A) (A) (A) (A) (A) (A) (A) (A) (A) (A) (A)
                 (A) (A) (A) (A) (A) (A) (A) (A) (A) (A) (A) (A)
                 (A) (A) (A) (A) (A) (A) (A) (A) (A) (A) (A) (A)
                 (A) (A) (A) (A) (A) (A) (A) (A) (A) (A) (A) (A)
                 (A) (A) (A) (A) (A) (A) (A) (A) (A) (A) (A) (A)
                 (A) (A) (A) (A) (A) (A) (A) (A) (A) (A) (A) (A)
                 (A) (A) (A) (A) (A) (A) (A) (A) (A) (A) (A) (A)
                 (A) (A) (A) (A) (A) (A) (A) (A) (A) (A) (A) (A)
                 (A) (A) (A) (A) (A) (A) (A) (A) (A) (A) (A) (A)
                 (A) (A) (A) (A) (A) (A) (A) (A) (A) (A) (A) (A)
                 (A) (A) (A) (A) (A) (A) (A) (A) (A) (A) (A) (A)
                 (A) (A) (A) (A) (A) (A) (A) (A) (A) (A) (A) (A)
                 (A) (A) (A) (A) (A) (A) (A) (A) (A) (A) (A) (A)
                 (A) (A) (A) (A) (A) (A) (A) (A) (A) (A) (A) (A)
                 (A) (A) (A) (A) (A) (A) (A) (A) (A) (A) (A) (A)
                 (A) (A) (A) (A) (A) (A) (A) (A) (A) (A) (A) (A)
                 (A) (A) (A) (A) (A) (A) (A) (A) (A) (A) (A) (A)
                 (A) (A) (A) (A) (A) (A) (A) (A) (A) (A) (A) (A)
                 (A) (A) (A) (A) (A) (A) (A) (A) (A) (A) (A) (A)
                 (A) (A) (A) (A) (A) (A) (A) (A) (A) (A) (A) (A)
                 (A) (A) (A) (A) (A) (A) (A) (A) (A) (A) (A) (A)
                 (A) (A) (A) (A) (A) (A) (A) (A) (A) (A) (A) (A)
                 (A) (A) (A) (A) (A) (A) (A) (A) (A) (A) (A)
 The electronic state is 1-A.
 Alpha  occ. eigenvalues --  -19.67277 -19.66911 -19.65182 -19.64835 -19.64117
 Alpha  occ. eigenvalues --  -19.64090 -19.63535 -19.63350 -19.62576 -19.61665
 Alpha  occ. eigenvalues --  -19.61530 -10.67406 -10.65448 -10.62196 -10.61743
 Alpha  occ. eigenvalues --  -10.61376 -10.61279 -10.61214 -10.61139 -10.61077
 Alpha  occ. eigenvalues --  -10.60575 -10.59512 -10.59282  -1.25049  -1.22080
 Alpha  occ. eigenvalues --   -1.19295  -1.18781  -1.17985  -1.17266  -1.16145
 Alpha  occ. eigenvalues --   -1.15637  -1.15094  -1.14491  -1.14070  -0.92991
 Alpha  occ. eigenvalues --   -0.91109  -0.88872  -0.88130  -0.81028  -0.79091
 Alpha  occ. eigenvalues --   -0.76701  -0.73672  -0.72894  -0.72238  -0.71031
 Alpha  occ. eigenvalues --   -0.69914  -0.65942  -0.64836  -0.64209  -0.63492
 Alpha  occ. eigenvalues --   -0.62643  -0.61517  -0.59786  -0.59224  -0.58738
 Alpha  occ. eigenvalues --   -0.58402  -0.57029  -0.56537  -0.55806  -0.55638
 Alpha  occ. eigenvalues --   -0.54493  -0.53814  -0.52856  -0.51648  -0.51113
 Alpha  occ. eigenvalues --   -0.50863  -0.50223  -0.48832  -0.47958  -0.47555
 Alpha  occ. eigenvalues --   -0.46324  -0.46039  -0.45688  -0.45215  -0.44435
 Alpha  occ. eigenvalues --   -0.43451  -0.43265  -0.42647  -0.42627  -0.40898
 Alpha  occ. eigenvalues --   -0.39945  -0.39332  -0.38380  -0.38002  -0.37282
 Alpha  occ. eigenvalues --   -0.36610  -0.36356  -0.35981  -0.35436  -0.35222
 Alpha  occ. eigenvalues --   -0.34354
 Alpha virt. eigenvalues --    0.04276   0.04967   0.06097   0.06465   0.07215
 Alpha virt. eigenvalues --    0.08062   0.08316   0.09617   0.10019   0.10198
 Alpha virt. eigenvalues --    0.10635   0.11307   0.12470   0.12897   0.13440
 Alpha virt. eigenvalues --    0.14033   0.14600   0.14990   0.15590   0.16257
 Alpha virt. eigenvalues --    0.16805   0.16910   0.17917   0.17953   0.19791
 Alpha virt. eigenvalues --    0.20628   0.20753   0.22029   0.22585   0.23346
 Alpha virt. eigenvalues --    0.23641   0.24967   0.25773   0.26754   0.26928
 Alpha virt. eigenvalues --    0.27577   0.29281   0.30217   0.30919   0.31468
 Alpha virt. eigenvalues --    0.32356   0.32755   0.33849   0.35014   0.35340
 Alpha virt. eigenvalues --    0.36025   0.37930   0.39025   0.39982   0.40627
 Alpha virt. eigenvalues --    0.41323   0.41923   0.42472   0.43266   0.44273
 Alpha virt. eigenvalues --    0.44642   0.45131   0.45569   0.46908   0.47529
 Alpha virt. eigenvalues --    0.47999   0.48242   0.49080   0.49400   0.50215
 Alpha virt. eigenvalues --    0.50475   0.51516   0.52115   0.52814   0.53275
 Alpha virt. eigenvalues --    0.54323   0.54965   0.55415   0.55699   0.56367
 Alpha virt. eigenvalues --    0.57075   0.57227   0.58262   0.58823   0.59265
 Alpha virt. eigenvalues --    0.59332   0.60671   0.61146   0.61789   0.62184
 Alpha virt. eigenvalues --    0.62433   0.62536   0.63050   0.63483   0.64134
 Alpha virt. eigenvalues --    0.64495   0.64825   0.65730   0.66024   0.66613
 Alpha virt. eigenvalues --    0.66984   0.67359   0.67835   0.68709   0.69374
 Alpha virt. eigenvalues --    0.69870   0.72170   0.75592   0.77065   0.78095
 Alpha virt. eigenvalues --    0.78866   0.82472   0.84080   0.85154   0.85745
 Alpha virt. eigenvalues --    0.87392   0.88740   0.89270   0.89721   0.90997
 Alpha virt. eigenvalues --    0.91220   0.92162   0.92996   0.94454   0.95121
 Alpha virt. eigenvalues --    0.95400   0.96117   0.97132   0.98713   0.98952
 Alpha virt. eigenvalues --    0.99415   0.99849   1.01404   1.02025   1.02510
 Alpha virt. eigenvalues --    1.03978   1.05283   1.05594   1.06362   1.07078
 Alpha virt. eigenvalues --    1.08795   1.09137   1.10802   1.11272   1.12216
 Alpha virt. eigenvalues --    1.12509   1.13313   1.14561   1.15537   1.16069
 Alpha virt. eigenvalues --    1.17094   1.18665   1.19887   1.20928   1.22649
 Alpha virt. eigenvalues --    1.23319   1.23925   1.24870   1.25598   1.26200
 Alpha virt. eigenvalues --    1.28858   1.29247   1.31632   1.32347   1.34768
 Alpha virt. eigenvalues --    1.35974   1.36659   1.39572   1.40685   1.40785
 Alpha virt. eigenvalues --    1.41317   1.42423   1.43871   1.44398   1.45737
 Alpha virt. eigenvalues --    1.46478   1.47510   1.48753   1.49442   1.49815
 Alpha virt. eigenvalues --    1.50013   1.50750   1.50971   1.51753   1.52165
 Alpha virt. eigenvalues --    1.52720   1.53439   1.54082   1.54944   1.55293
 Alpha virt. eigenvalues --    1.56169   1.56746   1.57376   1.57685   1.58448
 Alpha virt. eigenvalues --    1.58860   1.59339   1.59739   1.60545   1.61422
 Alpha virt. eigenvalues --    1.61693   1.62890   1.63298   1.64574   1.64893
 Alpha virt. eigenvalues --    1.65751   1.66677   1.67434   1.68340   1.69241
 Alpha virt. eigenvalues --    1.70060   1.70654   1.72002   1.72698   1.73111
 Alpha virt. eigenvalues --    1.74181   1.75755   1.76431   1.77068   1.78113
 Alpha virt. eigenvalues --    1.78748   1.79612   1.80331   1.81365   1.81985
 Alpha virt. eigenvalues --    1.83475   1.84397   1.84652   1.85673   1.86607
 Alpha virt. eigenvalues --    1.88037   1.89299   1.90112   1.90897   1.91336
 Alpha virt. eigenvalues --    1.92134   1.94143   1.95122   1.96104   1.96872
 Alpha virt. eigenvalues --    1.97399   1.99239   2.00352   2.01986   2.02799
 Alpha virt. eigenvalues --    2.04728   2.05019   2.05913   2.07055   2.07571
 Alpha virt. eigenvalues --    2.08165   2.09076   2.09313   2.10843   2.12156
 Alpha virt. eigenvalues --    2.12905   2.13840   2.14129   2.15092   2.16128
 Alpha virt. eigenvalues --    2.16518   2.17116   2.18407   2.18704   2.19328
 Alpha virt. eigenvalues --    2.21322   2.21672   2.22566   2.24318   2.25570
 Alpha virt. eigenvalues --    2.26979   2.28970   2.30378   2.31909   2.31988
 Alpha virt. eigenvalues --    2.34587   2.35243   2.40464   2.40759   2.43217
 Alpha virt. eigenvalues --    2.43985   2.45253   2.45999   2.48504   2.49546
 Alpha virt. eigenvalues --    2.51051   2.52350   2.52517   2.53366   2.54090
 Alpha virt. eigenvalues --    2.55109   2.56553   2.57648   2.58074   2.59665
 Alpha virt. eigenvalues --    2.59873   2.61256   2.61664   2.63090   2.63630
 Alpha virt. eigenvalues --    2.65570   2.74974   2.76183   2.77386   2.78281
 Alpha virt. eigenvalues --    2.79319   2.80095   2.80874   2.81854   2.82823
 Alpha virt. eigenvalues --    2.84932   2.85076   2.86184   2.89020   2.91635
 Alpha virt. eigenvalues --    2.93198   2.93815   2.94962   2.96492   2.97294
 Alpha virt. eigenvalues --    2.97467   2.99002   2.99964   3.00485   3.02669
 Alpha virt. eigenvalues --    3.03285   3.04793   3.05231   3.07356   3.08950
 Alpha virt. eigenvalues --    3.11702   3.12122   3.13024   3.14180   3.16539
 Alpha virt. eigenvalues --    3.17480   3.18622   3.19452   3.19727   3.20301
 Alpha virt. eigenvalues --    3.20387   3.21014   3.21236   3.23033   3.23497
 Alpha virt. eigenvalues --    3.23679   3.24348   3.25752   3.26840   3.29430
 Alpha virt. eigenvalues --    3.31302   3.31821   3.32244   3.33328   3.34911
 Alpha virt. eigenvalues --    3.35733   3.36677   3.37241   3.37669   3.38616
 Alpha virt. eigenvalues --    3.40321   3.41903   3.43239   3.45228   3.46491
 Alpha virt. eigenvalues --    3.48257   3.52210   3.54426   3.56125   3.57494
[...]
    33  C   -0.000008   0.000029  -0.000000  -0.000000  -0.000000  -0.060996
    34  H   -0.000021   0.000097  -0.000004   0.000000  -0.000000  -0.001225
    35  O    0.000000  -0.000001   0.000000  -0.000000  -0.000000   0.006850
    36  H    0.000001  -0.000013   0.000000  -0.000000  -0.000000   0.001795
    37  C    0.000001  -0.000001  -0.000001  -0.000000   0.000000   0.003819
    38  H    0.000000   0.000001   0.000000   0.000000  -0.000000   0.000323
    39  O    0.000000   0.000000   0.000000   0.000000  -0.000000  -0.000514
    40  H    0.000000  -0.000000  -0.000000   0.000000   0.000000  -0.000348
    41  C    0.000000   0.000001   0.000000   0.000000  -0.000000   0.005047
    42  H    0.000000  -0.000000   0.000000  -0.000000   0.000000  -0.000120
    43  H    0.000000   0.000000   0.000000  -0.000000  -0.000000  -0.001041
    44  O   -0.000000   0.000000  -0.000000  -0.000000   0.000000  -0.000813
    45  H   -0.000001  -0.000001  -0.000009   0.000000   0.000000  -0.000822
              25         26         27         28         29         30
     1  C   -0.000041  -0.000000   0.000000   0.000010   0.000001  -0.000001
     2  H   -0.000012   0.000000   0.000000   0.000000  -0.000000  -0.000000
     3  O   -0.000000  -0.000000  -0.000000  -0.000000   0.000000  -0.000000
     4  H   -0.000000   0.000000  -0.000000   0.000000   0.000000  -0.000000
     5  C    0.000396   0.000061  -0.000025   0.000187   0.000004   0.000063
     6  H   -0.000064  -0.000003  -0.000000   0.000003   0.000082   0.000003
     7  O   -0.000111  -0.000000   0.000000   0.000000  -0.000001  -0.000000
     8  C    0.000170  -0.000000  -0.000003  -0.000157  -0.000003   0.000011
     9  H   -0.000020  -0.000003   0.000005  -0.000070  -0.000005   0.000001
    10  O   -0.000001   0.000000   0.000000  -0.000000  -0.000000  -0.000000
    11  H   -0.000002   0.000000   0.000000   0.000012   0.000001  -0.000001
    12  C    0.001724   0.000221   0.000076  -0.003608  -0.000999   0.000229
    13  H    0.000076   0.000023   0.000003  -0.000262  -0.000127   0.000079
    14  O   -0.000051   0.000083  -0.000092  -0.011904  -0.000179   0.000005
    15  H    0.002277  -0.006109   0.000706   0.020979  -0.000010   0.000579
    16  C   -0.017838  -0.000099  -0.000290   0.005578   0.008608  -0.002014
    17  H   -0.000127   0.000136  -0.000048   0.003888   0.000875  -0.000050
    18  O   -0.047219   0.003731  -0.000049  -0.054159  -0.032659   0.002270
    19  C   -0.000917  -0.000008   0.000001   0.000004  -0.000146  -0.000092
    20  H    0.001152   0.000037  -0.000007   0.000185  -0.000907   0.000338
    21  H   -0.000100  -0.000019   0.000005  -0.000037   0.000048  -0.000009
    22  O    0.000012  -0.000000   0.000000  -0.000000   0.000001   0.000000
    23  H    0.000007   0.000000  -0.000000   0.000000  -0.000000  -0.000000
    24  C    0.408447  -0.074428  -0.010018   0.203621   0.182655  -0.049120
    25  H    0.597615   0.002909   0.007045  -0.055365  -0.065511   0.012516
    26  C    0.002909   5.422118   0.387546   0.191300  -0.011078   0.002103
    27  H    0.007045   0.387546   0.547226  -0.038948   0.001979   0.000306
    28  O   -0.055365   0.191300  -0.038948   8.289142  -0.031172   0.002232
    29  C   -0.065511  -0.011078   0.001979  -0.031172   5.285143   0.384137
    30  H    0.012516   0.002103   0.000306   0.002232   0.384137   0.554316
    31  O    0.008314   0.000169  -0.000126   0.001904   0.246922  -0.034893
    32  H   -0.001622  -0.000005   0.000028   0.000080  -0.036211  -0.008533
    33  C   -0.001911  -0.022620  -0.013209  -0.004405   0.213813  -0.046202
    34  H    0.005676  -0.002162   0.005197   0.000557  -0.047364   0.010486
    35  O   -0.000121   0.002869  -0.000078  -0.000066  -0.042512   0.004572
    36  H   -0.000065  -0.000885  -0.000077  -0.000036  -0.011114  -0.001639
    37  C   -0.005085   0.105710  -0.054358  -0.040402  -0.062684  -0.002494
    38  H   -0.000042  -0.045489   0.010335   0.002739   0.001663   0.006341
    39  O   -0.000081  -0.046631   0.008087   0.001500   0.006692   0.000014
    40  H   -0.000023   0.011118  -0.000699  -0.000261   0.001623  -0.000066
    41  C    0.000917   0.298949  -0.030711  -0.042388  -0.001434  -0.000066
    42  H    0.000092  -0.041614  -0.007160   0.004370   0.000001   0.000010
    43  H   -0.000001  -0.057421   0.011955  -0.003460   0.000000  -0.000011
    44  O   -0.000241  -0.039711   0.008758  -0.003638  -0.000007   0.000001
    45  H   -0.000584  -0.006855  -0.002406   0.009693   0.000055  -0.000045
              31         32         33         34         35         36
     1  C   -0.000000   0.000001  -0.000000  -0.000000  -0.000000   0.000000
     2  H    0.000000   0.000000  -0.000000   0.000000   0.000000  -0.000000
     3  O    0.000000   0.000000  -0.000000  -0.000000   0.000000   0.000000
     4  H   -0.000000  -0.000000   0.000000   0.000000  -0.000000  -0.000000
     5  C    0.000120  -0.000034   0.000016   0.000001   0.000000  -0.000000
     6  H   -0.000016   0.000058   0.000006  -0.000000   0.000000  -0.000000
     7  O   -0.000000   0.000005   0.000000  -0.000000   0.000000   0.000000
     8  C    0.000000  -0.000002   0.000000   0.000000   0.000000  -0.000000
     9  H    0.000000   0.000000   0.000000   0.000000  -0.000000  -0.000000
    10  O    0.000000   0.000000   0.000000  -0.000000  -0.000000   0.000000
    11  H   -0.000000   0.000000  -0.000000  -0.000000   0.000000   0.000000
    12  C    0.000001   0.000047   0.000042   0.000001  -0.000000  -0.000000
    13  H   -0.000001   0.000016   0.000009   0.000000  -0.000000  -0.000000
    14  O    0.000000  -0.000003  -0.000001   0.000001  -0.000000  -0.000000
    15  H    0.000002   0.000007  -0.000228  -0.000013  -0.000000  -0.000000
    16  C   -0.000954  -0.000649  -0.000572  -0.000047   0.000002   0.000003
    17  H   -0.000179   0.000125   0.000108  -0.000050   0.000001  -0.000000
    18  O   -0.001227   0.008673   0.003347  -0.000180  -0.000014  -0.000008
    19  C   -0.001090   0.000536  -0.000008  -0.000021   0.000000   0.000001
    20  H    0.007400   0.001435   0.000029   0.000097  -0.000001  -0.000013
    21  H   -0.000108  -0.000065  -0.000000  -0.000004   0.000000   0.000000
    22  O    0.000001  -0.000044  -0.000000   0.000000  -0.000000  -0.000000
    23  H    0.000000   0.000002  -0.000000  -0.000000  -0.000000  -0.000000
    24  C   -0.048690  -0.005386  -0.060996  -0.001225   0.006850   0.001795
    25  H    0.008314  -0.001622  -0.001911   0.005676  -0.000121  -0.000065
    26  C    0.000169  -0.000005  -0.022620  -0.002162   0.002869  -0.000885
    27  H   -0.000126   0.000028  -0.013209   0.005197  -0.000078  -0.000077
    28  O    0.001904   0.000080  -0.004405   0.000557  -0.000066  -0.000036
    29  C    0.246922  -0.036211   0.213813  -0.047364  -0.042512  -0.011114
    30  H   -0.034893  -0.008533  -0.046202   0.010486   0.004572  -0.001639
    31  O    7.957605   0.321524  -0.045926   0.001857  -0.002034   0.014721
    32  H    0.321524   0.435068   0.009337  -0.000873  -0.000347  -0.000540
    33  C   -0.045926   0.009337   5.298436   0.376678   0.246955  -0.040653
    34  H    0.001857  -0.000873   0.376678   0.567773  -0.036386  -0.005215
    35  O   -0.002034  -0.000347   0.246955  -0.036386   7.963984   0.325003
    36  H    0.014721  -0.000540  -0.040653  -0.005215   0.325003   0.430733
    37  C    0.003907  -0.000638   0.205957  -0.051103  -0.049090   0.012399
    38  H   -0.000225  -0.000029  -0.057312   0.011342   0.003640  -0.000793
    39  O   -0.000016   0.000006  -0.029931   0.006970  -0.003830  -0.000485
    40  H   -0.000021   0.000006  -0.005270  -0.001637   0.016030  -0.000884
    41  C    0.000008  -0.000002   0.006699  -0.000640  -0.000053   0.000022
    42  H    0.000000  -0.000000   0.000245   0.000020  -0.000004   0.000002
    43  H    0.000001   0.000000  -0.000410  -0.000055  -0.000006  -0.000002
    44  O   -0.000000   0.000000  -0.000200  -0.000006   0.000000  -0.000000
    45  H   -0.000001  -0.000000  -0.000021  -0.000006   0.000000   0.000000
              37         38         39         40         41         42
     1  C    0.000000   0.000000  -0.000000   0.000000  -0.000000  -0.000000
     2  H    0.000000   0.000000   0.000000  -0.000000   0.000000   0.000000
     3  O    0.000000  -0.000000  -0.000000  -0.000000   0.000000   0.000000
     4  H    0.000000  -0.000000  -0.000000   0.000000   0.000000   0.000000
     5  C    0.000001  -0.000001  -0.000000   0.000000  -0.000002   0.000000
     6  H   -0.000001  -0.000000   0.000000   0.000000   0.000000  -0.000000
     7  O   -0.000000  -0.000000   0.000000  -0.000000   0.000000  -0.000000
     8  C   -0.000000  -0.000000  -0.000000  -0.000000   0.000004   0.000000
     9  H   -0.000001   0.000000   0.000000  -0.000000   0.000004  -0.000000
    10  O   -0.000000   0.000000   0.000000  -0.000000  -0.000000  -0.000000
    11  H    0.000000   0.000000  -0.000000   0.000000  -0.000004  -0.000000
    12  C   -0.000072   0.000002   0.000000  -0.000000   0.000145  -0.000004
    13  H   -0.000009  -0.000001   0.000000  -0.000000  -0.000009  -0.000001
    14  O   -0.000007  -0.000009   0.000000  -0.000000   0.000056  -0.000006
    15  H    0.000518   0.000064   0.000002   0.000002   0.002378   0.000241
    16  C    0.000400  -0.000003  -0.000001  -0.000000  -0.000207   0.000000
    17  H    0.000213  -0.000010  -0.000001   0.000001  -0.000228  -0.000007
    18  O   -0.000586  -0.000063   0.000000   0.000001  -0.000174   0.000006
    19  C    0.000001   0.000000   0.000000   0.000000   0.000000   0.000000
    20  H   -0.000001   0.000001   0.000000  -0.000000   0.000001  -0.000000
    21  H   -0.000001   0.000000   0.000000  -0.000000   0.000000   0.000000
    22  O   -0.000000   0.000000   0.000000   0.000000   0.000000  -0.000000
    23  H    0.000000  -0.000000  -0.000000   0.000000  -0.000000   0.000000
    24  C    0.003819   0.000323  -0.000514  -0.000348   0.005047  -0.000120
    25  H   -0.005085  -0.000042  -0.000081  -0.000023   0.000917   0.000092
    26  C    0.105710  -0.045489  -0.046631   0.011118   0.298949  -0.041614
    27  H   -0.054358   0.010335   0.008087  -0.000699  -0.030711  -0.007160
    28  O   -0.040402   0.002739   0.001500  -0.000261  -0.042388   0.004370
    29  C   -0.062684   0.001663   0.006692   0.001623  -0.001434   0.000001
    30  H   -0.002494   0.006341   0.000014  -0.000066  -0.000066   0.000010
    31  O    0.003907  -0.000225  -0.000016  -0.000021   0.000008   0.000000
    32  H   -0.000638  -0.000029   0.000006   0.000006  -0.000002  -0.000000
    33  C    0.205957  -0.057312  -0.029931  -0.005270   0.006699   0.000245
    34  H   -0.051103   0.011342   0.006970  -0.001637  -0.000640   0.000020
    35  O   -0.049090   0.003640  -0.003830   0.016030  -0.000053  -0.000004
    36  H    0.012399  -0.000793  -0.000485  -0.000884   0.000022   0.000002
    37  C    5.375101   0.381161   0.220417  -0.046054  -0.048654  -0.002044
    38  H    0.381161   0.572809  -0.033130  -0.004460  -0.010162   0.000008
    39  O    0.220417  -0.033130   7.960576   0.321719  -0.000841   0.011304
    40  H   -0.046054  -0.004460   0.321719   0.435421  -0.000271  -0.000217
    41  C   -0.048654  -0.010162  -0.000841  -0.000271   4.810385   0.403969
    42  H   -0.002044   0.000008   0.011304  -0.000217   0.403969   0.529044
    43  H   -0.001369   0.006515  -0.000343  -0.000125   0.396412  -0.037097
    44  O    0.005744  -0.000002   0.000002   0.000010   0.279237  -0.029620
    45  H    0.000355  -0.000098  -0.000030   0.000002  -0.048454   0.006911
              43         44         45
     1  C   -0.000000  -0.000000   0.000051
     2  H    0.000000  -0.000000   0.000000
     3  O    0.000000   0.000000  -0.000000
     4  H    0.000000   0.000000  -0.000002
     5  C   -0.000001  -0.000000   0.000080
     6  H   -0.000000  -0.000000  -0.000001
     7  O    0.000000  -0.000000  -0.000001
     8  C    0.000000  -0.000005  -0.000326
     9  H    0.000002  -0.000031   0.000430
    10  O   -0.000000   0.000000  -0.000006
    11  H   -0.000000   0.000001   0.000046
    12  C    0.000016   0.000058  -0.003020
    13  H    0.000005  -0.000018   0.000529
    14  O   -0.000177  -0.002281   0.025726
    15  H    0.000279   0.001543  -0.005519
    16  C   -0.000032   0.000029   0.001123
    17  H    0.000031   0.000509   0.001706
    18  O   -0.000013   0.000002  -0.000092
    19  C    0.000000  -0.000000  -0.000001
    20  H    0.000000   0.000000  -0.000001
    21  H    0.000000  -0.000000  -0.000009
    22  O   -0.000000  -0.000000   0.000000
    23  H   -0.000000   0.000000   0.000000
    24  C   -0.001041  -0.000813  -0.000822
    25  H   -0.000001  -0.000241  -0.000584
    26  C   -0.057421  -0.039711  -0.006855
    27  H    0.011955   0.008758  -0.002406
    28  O   -0.003460  -0.003638   0.009693
    29  C    0.000000  -0.000007   0.000055
    30  H   -0.000011   0.000001  -0.000045
    31  O    0.000001  -0.000000  -0.000001
    32  H    0.000000   0.000000  -0.000000
    33  C   -0.000410  -0.000200  -0.000021
    34  H   -0.000055  -0.000006  -0.000006
    35  O   -0.000006   0.000000   0.000000
    36  H   -0.000002  -0.000000   0.000000
    37  C   -0.001369   0.005744   0.000355
    38  H    0.006515  -0.000002  -0.000098
    39  O   -0.000343   0.000002  -0.000030
    40  H   -0.000125   0.000010   0.000002
    41  C    0.396412   0.279237  -0.048454
    42  H   -0.037097  -0.029620   0.006911
    43  H    0.601530  -0.036455  -0.005948
    44  O   -0.036455   7.900588   0.321033
    45  H   -0.005948   0.321033   0.460424
 Mulliken charges:
               1
     1  C    0.226680
     2  H    0.149235
     3  O   -0.370751
     4  H    0.251707
     5  C   -0.050006
     6  H    0.162376
     7  O   -0.400953
     8  C    0.002951
     9  H    0.138847
    10  O   -0.407480
    11  H    0.270889
    12  C    0.005100
    13  H    0.163827
    14  O   -0.446321
    15  H    0.280631
    16  C   -0.050244
    17  H    0.173638
    18  O   -0.402018
    19  C   -0.003451
    20  H    0.132166
    21  H    0.126799
    22  O   -0.412580
    23  H    0.262055
    24  C    0.239888
    25  H    0.147810
    26  C   -0.073943
    27  H    0.169049
    28  O   -0.447644
    29  C    0.009818
    30  H    0.164620
    31  O   -0.428951
    32  H    0.278025
    33  C   -0.031802
    34  H    0.160329
    35  O   -0.435362
    36  H    0.277729
    37  C    0.048948
    38  H    0.154885
    39  O   -0.421456
    40  H    0.274406
    41  C   -0.019934
    42  H    0.161671
    43  H    0.127221
    44  O   -0.404488
    45  H    0.246084
 Sum of Mulliken charges =  -0.00000
 Mulliken charges with hydrogens summed into heavy atoms:
               1
     1  C    0.375915
     3  O   -0.119044
     5  C    0.112370
     7  O   -0.400953
     8  C    0.141798
    10  O   -0.136592
    12  C    0.168927
    14  O   -0.165690
    16  C    0.123394
    18  O   -0.402018
    19  C    0.255514
    22  O   -0.150525
    24  C    0.387699
    26  C    0.095106
    28  O   -0.447644
    29  C    0.174438
    31  O   -0.150926
    33  C    0.128526
    35  O   -0.157633
    37  C    0.203833
    39  O   -0.147050
    41  C    0.268958
    44  O   -0.158404
 Electronic spatial extent (au):  <R**2>=           8732.2121
 Charge=              0.0000 electrons
 Dipole moment (field-independent basis, Debye):
    X=             -2.5702    Y=              1.3330    Z=             -0.9826  Tot=              3.0575
 Quadrupole moment (field-independent basis, Debye-Ang):
   XX=           -151.6164   YY=           -150.3499   ZZ=           -134.3599
   XY=             -8.0605   XZ=              8.5342   YZ=             -0.7542
 Traceless Quadrupole moment (field-independent basis, Debye-Ang):
   XX=             -6.1744   YY=             -4.9078   ZZ=             11.0821
   XY=             -8.0605   XZ=              8.5342   YZ=             -0.7542
 Octapole moment (field-independent basis, Debye-Ang**2):
  XXX=           -102.7373  YYY=            -10.2612  ZZZ=             -5.0985  XYY=            -25.5901
  XXY=             20.1713  XXZ=             24.7512  XZZ=             19.5521  YZZ=             10.1036
  YYZ=            -35.5017  XYZ=            -29.9484
 Hexadecapole moment (field-independent basis, Debye-Ang**3):
 XXXX=          -7876.3455 YYYY=          -2915.4234 ZZZZ=           -549.5040 XXXY=            -26.2691
 XXXZ=            213.4777 YYYX=           -241.5347 YYYZ=             -9.7806 ZZZX=             39.5822
 ZZZY=              4.4152 XXYY=          -1711.3961 XXZZ=          -1304.8167 YYZZ=           -548.0425
 XXYZ=            -54.8018 YYXZ=             52.1733 ZZXY=            -30.1742
 N-N= 2.317516040891D+03 E-N=-7.681872263380D+03  KE= 1.294104457889D+03
 No NMR shielding tensors so no spin-rotation constants.
 Leave Link  601 at Thu Mar 16 18:00:54 2023, MaxMem=   262144000 cpu:               1.8 elap:               0.3
 (Enter /dragofs/sw/campus/0.2/software/gaussian/16.gaussian/gaussian/g16_legacy/l9999.exe)
 1\1\GINC-DRAGO31050156\FOpt\RM062X\6-311G(d,p)\C12H22O11\JRAMOS\16-Mar
 -2023\0\\#p opt M062X/6-311g(d,p)\\Optimization 03-DIHEDRAL_PHI_PSI_14
 b/dimer14b_000_000.log\\0,1\C,-4.07322981,-0.2462462295,0.2208410457\H
 ,-4.2552313941,0.1283712902,1.2356354526\O,-5.2994210866,-0.5790951334
 ,-0.3051479647\H,-5.1590815399,-1.0810578744,-1.11407751\C,-2.30240766
 2,1.3237037589,-0.040749376\H,-2.4873554355,1.7046727843,0.9749953251\
 O,-3.4976935383,0.7829195286,-0.5770920851\C,-3.0911579893,-1.41262791
 23,0.2552032156\H,-2.9407786116,-1.7508480351,-0.7839554044\O,-3.62533
 32285,-2.4362423122,1.051225142\H,-2.9171868623,-3.0746599181,1.188797
 6367\C,-1.7485160841,-0.9525000369,0.8030731945\H,-1.8945294415,-0.636
 1649168,1.8463152271\O,-0.8903582332,-2.0759528354,0.7557084166\H,-0.0
 026323523,-1.7760576617,0.9923037562\C,-1.2264017637,0.2447584431,0.02
 21001225\H,-0.9533814088,-0.0732210437,-0.9923951551\O,-0.0843660718,0
 .7978055202,0.6825919943\C,-1.9265440163,2.4830609042,-0.9436447116\H,
 -1.0101849236,2.9527008011,-0.5815799154\H,-1.7417677827,2.0885127925,
 -1.9531686602\O,-2.9367965527,3.4592065145,-0.9468781078\H,-3.75781006
 73,2.9954699395,-1.1437600902\C,1.1192784132,0.5996233885,0.0282110404
 \H,1.0450064348,0.9091359966,-1.0280960403\C,2.6201016971,-1.121153382
 8,-0.6263618056\H,2.5244117191,-0.7829617685,-1.6673650457\O,1.4353668
 305,-0.7743313379,0.0927849957\C,2.2061614676,1.3917891795,0.732746770
 7\H,2.2342862828,1.0708447904,1.7819380131\O,2.0008064351,2.7828099362
 ,0.6194795384\H,1.2132164412,3.0100695356,1.1225866717\C,3.5381303526,
 1.0800910443,0.0707521546\H,3.5008985561,1.4465170234,-0.9663567831\O,
 4.61640988,1.672942334,0.7598888656\H,4.4417742884,2.6183878274,0.8082
 933944\C,3.7996435199,-0.4192179521,0.0326590531\H,3.8964905579,-0.778
 5085543,1.067999884\O,4.9557081444,-0.7068551089,-0.7149371001\H,5.655
 6379303,-0.1387041505,-0.3759023411\C,2.6858340747,-2.6344787646,-0.60
 91571024\H,3.5701826623,-2.959121342,-1.156748857\H,2.7783503161,-2.97
 13614014,0.4329928483\O,1.5569790545,-3.1900816694,-1.2404945012\H,0.7
 702817978,-2.8704639915,-0.7833872018\\Version=EM64L-G16RevA.03\State=
 1-A\HF=-1297.8329403\RMSD=4.084e-09\RMSF=5.556e-06\Dipole=1.011816,0.5
 249895,0.3841844\Quadrupole=-4.5684209,-3.6447427,8.2131636,5.9981697,
 6.3660723,0.558968\PG=C01 [X(C12H22O11)]\\@


 ... A MOLECULAR SYSTEM ... (PASSES) ... FROM ONE STATE OF EQUILIBRIUM 
 TO ANOTHER ... BY MEANS OF ALL POSSIBLE INTERMEDIATE PATHS, 
 BUT THE PATH MOST ECONOMICAL OF ENERGY WILL BE THE MORE OFTEN TRAVELED.

                      -- HENRY EYRING, 1945
 Job cpu time:       0 days  3 hours 12 minutes 20.6 seconds.
 Elapsed time:       0 days  0 hours 24 minutes 13.0 seconds.
 File lengths (MBytes):  RWF=    189 Int=      0 D2E=      0 Chk=     24 Scr=      1
 Normal termination of Gaussian 16 at Thu Mar 16 18:00:54 2023.
